<VTKFile type='UnstructuredGrid' version='0.1' byte_order='BigEndian'>
<UnstructuredGrid>
<Piece NumberOfPoints='4153' NumberOfCells='8068'>
<Points>
<DataArray type='Float64' NumberOfComponents='3' Format='ascii'>
0 0 0
0 1 0
1 1 0
1 0 0
0 0.0169492 0
0 0.0338983 0
0 0.0508475 0
0 0.0677966 0
0 0.0847458 0
0 0.101695 0
0 0.118644 0
0 0.135593 0
0 0.152542 0
0 0.169492 0
0 0.186441 0
0 0.20339 0
0 0.220339 0
0 0.237288 0
0 0.254237 0
0 0.271186 0
0 0.288136 0
0 0.305085 0
0 0.322034 0
0 0.338983 0
0 0.355932 0
0 0.372881 0
0 0.389831 0
0 0.40678 0
0 0.423729 0
0 0.440678 0
0 0.457627 0
0 0.474576 0
0 0.491525 0
0 0.508475 0
0 0.525424 0
0 0.542373 0
0 0.559322 0
0 0.576271 0
0 0.59322 0
0 0.610169 0
0 0.627119 0
0 0.644068 0
0 0.661017 0
0 0.677966 0
0 0.694915 0
0 0.711864 0
0 0.728814 0
0 0.745763 0
0 0.762712 0
0 0.779661 0
0 0.79661 0
0 0.813559 0
0 0.830508 0
0 0.847458 0
0 0.864407 0
0 0.881356 0
0 0.898305 0
0 0.915254 0
0 0.932203 0
0 0.949153 0
0 0.966102 0
0 0.983051 0
0.0169492 1 0
0.0338983 1 0
0.0508475 1 0
0.0677966 1 0
0.0847458 1 0
0.101695 1 0
0.118644 1 0
0.135593 1 0
0.152542 1 0
0.169492 1 0
0.186441 1 0
0.20339 1 0
0.220339 1 0
0.237288 1 0
0.254237 1 0
0.271186 1 0
0.288136 1 0
0.305085 1 0
0.322034 1 0
0.338983 1 0
0.355932 1 0
0.372881 1 0
0.389831 1 0
0.40678 1 0
0.423729 1 0
0.440678 1 0
0.457627 1 0
0.474576 1 0
0.491525 1 0
0.508475 1 0
0.525424 1 0
0.542373 1 0
0.559322 1 0
0.576271 1 0
0.59322 1 0
0.610169 1 0
0.627119 1 0
0.644068 1 0
0.661017 1 0
0.677966 1 0
0.694915 1 0
0.711864 1 0
0.728814 1 0
0.745763 1 0
0.762712 1 0
0.779661 1 0
0.79661 1 0
0.813559 1 0
0.830508 1 0
0.847458 1 0
0.864407 1 0
0.881356 1 0
0.898305 1 0
0.915254 1 0
0.932203 1 0
0.949153 1 0
0.966102 1 0
0.983051 1 0
1 0.983051 0
1 0.966102 0
1 0.949153 0
1 0.932203 0
1 0.915254 0
1 0.898305 0
1 0.881356 0
1 0.864407 0
1 0.847458 0
1 0.830508 0
1 0.813559 0
1 0.79661 0
1 0.779661 0
1 0.762712 0
1 0.745763 0
1 0.728814 0
1 0.711864 0
1 0.694915 0
1 0.677966 0
1 0.661017 0
1 0.644068 0
1 0.627119 0
1 0.610169 0
1 0.59322 0
1 0.576271 0
1 0.559322 0
1 0.542373 0
1 0.525424 0
1 0.508475 0
1 0.491525 0
1 0.474576 0
1 0.457627 0
1 0.440678 0
1 0.423729 0
1 0.40678 0
1 0.389831 0
1 0.372881 0
1 0.355932 0
1 0.338983 0
1 0.322034 0
1 0.305085 0
1 0.288136 0
1 0.271186 0
1 0.254237 0
1 0.237288 0
1 0.220339 0
1 0.20339 0
1 0.186441 0
1 0.169492 0
1 0.152542 0
1 0.135593 0
1 0.118644 0
1 0.101695 0
1 0.0847458 0
1 0.0677966 0
1 0.0508475 0
1 0.0338983 0
1 0.0169492 0
0.983051 0 0
0.966102 0 0
0.949153 0 0
0.932203 0 0
0.915254 0 0
0.898305 0 0
0.881356 0 0
0.864407 0 0
0.847458 0 0
0.830508 0 0
0.813559 0 0
0.79661 0 0
0.779661 0 0
0.762712 0 0
0.745763 0 0
0.728814 0 0
0.711864 0 0
0.694915 0 0
0.677966 0 0
0.661017 0 0
0.644068 0 0
0.627119 0 0
0.610169 0 0
0.59322 0 0
0.576271 0 0
0.559322 0 0
0.542373 0 0
0.525424 0 0
0.508475 0 0
0.491525 0 0
0.474576 0 0
0.457627 0 0
0.440678 0 0
0.423729 0 0
0.40678 0 0
0.389831 0 0
0.372881 0 0
0.355932 0 0
0.338983 0 0
0.322034 0 0
0.305085 0 0
0.288136 0 0
0.271186 0 0
0.254237 0 0
0.237288 0 0
0.220339 0 0
0.20339 0 0
0.186441 0 0
0.169492 0 0
0.152542 0 0
0.135593 0 0
0.118644 0 0
0.101695 0 0
0.0847458 0 0
0.0677966 0 0
0.0508475 0 0
0.0338983 0 0
0.0169492 0 0
0.5 0.0146784 0
0.500401 0.984631 0
0.985322 0.5 0
0.0148443 0.5 0
0.985322 0.381356 0
0.618543 0.984934 0
0.381356 0.0146784 0
0.0150543 0.619033 0
0.985322 0.618644 0
0.618437 0.0150908 0
0.382486 0.983823 0
0.0150621 0.381299 0
0.985322 0.279661 0
0.719452 0.986536 0
0.277976 0.0152204 0
0.0153051 0.720339 0
0.985322 0.720339 0
0.719452 0.0134636 0
0.27787 0.984718 0
0.0150543 0.28005 0
0.985322 0.805085 0
0.985322 0.194915 0
0.19551 0.0143418 0
0.0148522 0.805069 0
0.804799 0.0148693 0
0.804252 0.98479 0
0.196172 0.984839 0
0.0155914 0.194923 0
0.985322 0.872881 0
0.873434 0.0151803 0
0.127039 0.0143515 0
0.015479 0.873149 0
0.985322 0.127119 0
0.873231 0.985577 0
0.126805 0.98736 0
0.0148497 0.127119 0
0.985322 0.449153 0
0.449153 0.0146784 0
0.550847 0.985322 0
0.0146784 0.550847 0
0.985322 0.330508 0
0.327989 0.0161095 0
0.669777 0.987376 0
0.015072 0.669076 0
0.432203 0.985322 0
0.327989 0.983891 0
0.0153051 0.432203 0
0.0147128 0.330407 0
0.985322 0.669492 0
0.669227 0.0138232 0
0.985322 0.567797 0
0.567797 0.0146784 0
0.0770467 0.0142855 0
0.0152962 0.923729 0
0.985322 0.923729 0
0.92251 0.015244 0
0.985322 0.0762712 0
0.923193 0.985631 0
0.0779892 0.984775 0
0.0156089 0.076279 0
0.985322 0.415254 0
0.586761 0.984176 0
0.985322 0.161017 0
0.840047 0.986475 0
0.768574 0.983884 0
0.985322 0.228814 0
0.159618 0.0152576 0
0.0152962 0.838983 0
0.229045 0.0129694 0
0.415254 0.0143675 0
0.0150389 0.771556 0
0.0152962 0.584746 0
0.245765 0.985046 0
0.0153051 0.245763 0
0.159618 0.984742 0
0.985322 0.754237 0
0.0156128 0.161017 0
0.754724 0.0149598 0
0.985322 0.838983 0
0.468553 0.983894 0
0.840047 0.0135252 0
0.0152962 0.466102 0
0.985322 0.533898 0
0.532862 0.0167676 0
0.0418271 0.0149678 0
0.0155218 0.957669 0
0.985322 0.957627 0
0.985402 0.0425114 0
0.959236 0.0152714 0
0.959097 0.984809 0
0.0418271 0.985032 0
0.0155218 0.0423309 0
0.985322 0.889831 0
0.970643 0.881356 0
0.970643 0.898305 0
0.955965 0.889831 0
0.955965 0.90678 0
0.941286 0.898305 0
0.941286 0.881356 0
0.926608 0.889831 0
0.926608 0.872881 0
0.91193 0.881356 0
0.91193 0.864407 0
0.897251 0.872881 0
0.897251 0.855932 0
0.882573 0.864407 0
0.882573 0.847458 0
0.867894 0.855932 0
0.867894 0.838983 0
0.853216 0.847458 0
0.853216 0.830508 0
0.838538 0.838983 0
0.838538 0.822034 0
0.823859 0.830508 0
0.823859 0.813559 0
0.809181 0.822034 0
0.809181 0.805085 0
0.794502 0.813559 0
0.794502 0.79661 0
0.779824 0.805085 0
0.779824 0.788136 0
0.765146 0.79661 0
0.765146 0.779661 0
0.750467 0.788136 0
0.750467 0.771186 0
0.735789 0.779661 0
0.735789 0.762712 0
0.72111 0.771186 0
0.72111 0.754237 0
0.706432 0.762712 0
0.706432 0.745763 0
0.691754 0.754237 0
0.691754 0.737288 0
0.677075 0.745763 0
0.677075 0.728814 0
0.662397 0.737288 0
0.662397 0.720339 0
0.647718 0.728814 0
0.647718 0.711864 0
0.63304 0.720339 0
0.63304 0.70339 0
0.618362 0.711864 0
0.618362 0.694915 0
0.603683 0.70339 0
0.603683 0.686441 0
0.589005 0.694915 0
0.589005 0.677966 0
0.574326 0.686441 0
0.574326 0.669492 0
0.559648 0.677966 0
0.559648 0.661017 0
0.574326 0.652542 0
0.559648 0.644068 0
0.574326 0.635593 0
0.559648 0.627119 0
0.574326 0.618644 0
0.559648 0.610169 0
0.574326 0.601695 0
0.559648 0.59322 0
0.574326 0.584746 0
0.559648 0.576271 0
0.574326 0.567797 0
0.559648 0.559322 0
0.574326 0.550847 0
0.559648 0.542373 0
0.574326 0.533898 0
0.559648 0.525424 0
0.574326 0.516949 0
0.54497 0.533898 0
0.54497 0.516949 0
0.54497 0.652542 0
0.530291 0.525424 0
0.530291 0.508475 0
0.515613 0.516949 0
0.515613 0.5 0
0.500935 0.508475 0
0.500935 0.491525 0
0.486256 0.5 0
0.486256 0.483051 0
0.500935 0.474576 0
0.486256 0.466102 0
0.500935 0.457627 0
0.486256 0.449153 0
0.471578 0.457627 0
0.471578 0.440678 0
0.500935 0.440678 0
0.456899 0.449153 0
0.456899 0.432203 0
0.442221 0.440678 0
0.442221 0.423729 0
0.427543 0.432203 0
0.427543 0.415254 0
0.412864 0.423729 0
0.412864 0.40678 0
0.427543 0.398305 0
0.412864 0.389831 0
0.589005 0.525424 0
0.589005 0.508475 0
0.427543 0.381356 0
0.398186 0.415254 0
0.398186 0.432203 0
0.412864 0.372881 0
0.603683 0.516949 0
0.603683 0.5 0
0.427543 0.364407 0
0.383507 0.423729 0
0.383507 0.440678 0
0.706432 0.728814 0
0.618362 0.508475 0
0.618362 0.491525 0
0.412864 0.355932 0
0.427543 0.347458 0
0.368829 0.432203 0
0.368829 0.449153 0
0.63304 0.5 0
0.63304 0.483051 0
0.412864 0.338983 0
0.354151 0.440678 0
0.354151 0.457627 0
0.647718 0.491525 0
0.647718 0.474576 0
0.427543 0.330508 0
0.412864 0.322034 0
0.339472 0.449153 0
0.339472 0.466102 0
0.662397 0.483051 0
0.662397 0.466102 0
0.427543 0.313559 0
0.559648 0.694915 0
0.412864 0.305085 0
0.324794 0.457627 0
0.324794 0.474576 0
0.677075 0.474576 0
0.677075 0.457627 0
0.324794 0.440678 0
0.427543 0.29661 0
0.442221 0.305085 0
0.310115 0.449153 0
0.310115 0.432203 0
0.691754 0.466102 0
0.691754 0.449153 0
0.677075 0.440678 0
0.691754 0.432203 0
0.677075 0.423729 0
0.691754 0.415254 0
0.677075 0.40678 0
0.691754 0.398305 0
0.677075 0.389831 0
0.691754 0.381356 0
0.677075 0.372881 0
0.691754 0.364407 0
0.677075 0.355932 0
0.691754 0.347458 0
0.677075 0.338983 0
0.691754 0.330508 0
0.677075 0.322034 0
0.691754 0.313559 0
0.677075 0.305085 0
0.691754 0.29661 0
0.412864 0.288136 0
0.442221 0.288136 0
0.677075 0.288136 0
0.765146 0.762712 0
0.691754 0.279661 0
0.706432 0.355932 0
0.295437 0.440678 0
0.295437 0.423729 0
0.706432 0.440678 0
0.706432 0.288136 0
0.706432 0.271186 0
0.677075 0.271186 0
0.618362 0.728814 0
0.691754 0.483051 0
0.280759 0.432203 0
0.280759 0.415254 0
0.72111 0.279661 0
0.72111 0.262712 0
0.26608 0.423729 0
0.26608 0.40678 0
0.26608 0.440678 0
0.735789 0.271186 0
0.735789 0.254237 0
0.251402 0.415254 0
0.251402 0.398305 0
0.677075 0.762712 0
0.750467 0.262712 0
0.750467 0.245763 0
0.735789 0.237288 0
0.750467 0.228814 0
0.647718 0.694915 0
0.236723 0.40678 0
0.236723 0.389831 0
0.486256 0.516949 0
0.662397 0.330508 0
0.765146 0.254237 0
0.735789 0.220339 0
0.251402 0.381356 0
0.236723 0.372881 0
0.251402 0.364407 0
0.236723 0.355932 0
0.251402 0.347458 0
0.236723 0.338983 0
0.251402 0.330508 0
0.236723 0.322034 0
0.251402 0.313559 0
0.236723 0.305085 0
0.251402 0.29661 0
0.236723 0.288136 0
0.251402 0.279661 0
0.236723 0.271186 0
0.251402 0.262712 0
0.236723 0.254237 0
0.251402 0.245763 0
0.236723 0.237288 0
0.251402 0.228814 0
0.236723 0.220339 0
0.251402 0.211864 0
0.456899 0.29661 0
0.456899 0.279661 0
0.823859 0.79661 0
0.750467 0.211864 0
0.222045 0.228814 0
0.222045 0.211864 0
0.222045 0.313559 0
0.222045 0.398305 0
0.339472 0.483051 0
0.324794 0.491525 0
0.339472 0.5 0
0.324794 0.508475 0
0.339472 0.516949 0
0.324794 0.525424 0
0.339472 0.533898 0
0.324794 0.542373 0
0.339472 0.550847 0
0.324794 0.559322 0
0.339472 0.567797 0
0.324794 0.576271 0
0.310115 0.567797 0
[...]
<PointData Vectors='Velocity'>
<DataArray type='Float64' Name='Ux' Format='ascii'>
0.635397
0.635452
0
0
0.622144
0.614717
0.610436
0.607547
0.605423
0.603745
0.60238
0.60123
0.600257
0.599426
0.598707
0.598073
0.597518
0.597025
0.596588
0.5962
0.595858
0.59555
0.595279
0.595041
0.594832
0.594652
0.594497
0.594367
0.59426
0.594176
0.594113
0.594071
0.59405
0.594052
0.594073
0.594115
0.594179
0.594264
0.594372
0.594503
0.594659
0.594839
0.595051
0.595289
0.59556
0.595867
0.59621
0.596597
0.597034
0.597526
0.59808
0.598705
0.599427
0.600255
0.601224
0.602371
0.603736
0.605411
0.607572
0.610471
0.614769
0.6222
0.618535
0.603328
0.589908
0.577228
0.564931
0.552901
0.541052
0.529503
0.518198
0.507052
0.496054
0.485153
0.474291
0.463526
0.452791
0.442135
0.431505
0.420938
0.410381
0.399854
0.38938
0.378919
0.368499
0.358085
0.347688
0.337325
0.32697
0.316641
0.30632
0.296011
0.285713
0.275424
0.265155
0.25489
0.244641
0.234396
0.224159
0.213929
0.203703
0.193486
0.183276
0.173068
0.162867
0.152669
0.142476
0.132284
0.122097
0.111912
0.101731
0.0915522
0.0813751
0.0711997
0.0610252
0.050853
0.040681
0.03051
0.0203396
0.0101696
0
0
0
0
0
0
0
0
0
0
0
0
0
0
0
0
0
0
0
0
0
0
0
0
0
0
0
0
0
0
0
0
0
0
0
0
0
0
0
0
0
0
0
0
0
0
0
0
0
0
0
0
0
0
0
0
0
0
0.0101697
0.0203399
0.0305104
0.0406816
0.0508539
0.0610264
0.0712009
0.0813765
0.0915538
0.101733
0.111914
0.122099
0.132285
0.142476
0.152668
0.162867
0.173069
0.183277
0.193487
0.203704
0.21393
0.22416
0.234398
0.244642
0.254891
0.265156
0.275424
0.285706
0.296005
0.306309
0.316631
0.32696
0.337315
0.347679
0.358067
0.36848
0.378906
0.38936
0.399836
0.410367
0.420925
0.431491
0.44212
0.452799
0.463538
0.474323
0.485186
0.496127
0.507139
0.518311
0.529589
0.541063
0.552716
0.564712
0.57714
0.58986
0.603274
0.618482
0.301175
0.300933
0.00877236
0.58503
0.00877872
0.229366
0.373665
0.585416
0.00877876
0.229431
0.372978
0.585402
0.00879201
0.168527
0.437712
0.586658
0.00879207
0.168529
0.437785
0.586792
0.00880399
0.00880389
0.489868
0.589173
0.117199
0.117527
0.489388
0.588715
0.0088104
0.0759703
0.534457
0.592018
0.00881041
0.0760906
0.534636
0.592398
0.00877352
0.332147
0.270316
0.585224
0.00878473
0.406586
0.19845
0.585961
0.342502
0.406594
0.584912
0.586178
0.0087848
0.198785
0.00877446
0.260052
0.568027
0.596529
0.00881163
0.0465077
0.0088117
0.0460964
0.567295
0.596342
0.00877563
0.248578
0.00880769
0.0960195
0.138976
0.00879947
0.51302
0.590273
0.468554
0.352869
0.588012
0.585013
0.457936
0.587389
0.512962
0.00879716
0.590077
0.147305
0.00880772
0.32032
0.0960207
0.584796
0.00877284
0.281226
0.592843
0.60207
0.00881073
0.00876284
0.0244651
0.0245478
0.592914
0.602022
0.00881118
0.0176218
0.0176231
0.026434
0.0264354
0.035247
0.0352442
0.0440578
0.0440533
0.0528678
0.052861
0.0616764
0.0616671
0.0704835
0.0704713
0.0792887
0.0792732
0.0880916
0.0880725
0.0968918
0.0968688
0.105689
0.105662
0.114483
0.114451
0.123272
0.123235
0.132058
0.132015
0.140838
0.14079
0.149613
0.149559
0.158382
0.158323
0.167145
0.167079
0.175901
0.175829
0.184649
0.184571
0.19339
0.193305
0.202122
0.202031
0.210845
0.210749
0.219559
0.219457
0.228264
0.228156
0.236959
0.236845
0.245643
0.245525
0.254317
0.254196
0.262982
0.262856
0.254082
0.26274
0.253978
0.262635
0.253884
0.262542
0.253801
0.26246
0.25373
0.262391
0.253671
0.262335
0.253625
0.262293
0.253591
0.262265
0.253571
0.270958
0.270936
0.271507
0.27962
0.279604
0.288279
0.288271
0.296936
0.296936
0.305592
0.3056
0.296953
0.305627
0.296987
0.305671
0.314302
0.314357
0.297037
0.322979
0.323046
0.331658
0.331738
0.34034
0.340433
0.349026
0.349133
0.340546
0.349259
0.244888
0.244876
0.340679
0.357717
0.357619
0.349407
0.236185
0.236178
0.340831
0.366301
0.366211
0.175757
0.227479
0.227479
0.349576
0.341003
0.374885
0.374805
0.218772
0.218778
0.349764
0.383471
0.383402
0.210063
0.210073
0.341194
0.349972
0.392062
0.392003
0.201351
0.201364
0.341402
0.263115
0.350198
0.400657
0.40061
0.192636
0.192653
0.400729
0.341627
0.332821
0.409319
0.409403
0.183917
0.183937
0.192678
0.183965
0.192712
0.184
0.192753
0.184042
0.192802
0.184091
0.192858
0.184146
0.192921
0.184207
0.192989
0.184272
0.193062
0.184342
0.193139
0.184415
0.350442
0.333044
0.19322
0.14074
0.184491
0.175427
0.41799
0.418086
0.175218
0.175684
0.175755
0.193303
0.228376
0.183906
0.42667
0.426779
0.166945
0.167011
0.43536
0.435481
0.435264
0.158199
0.15826
0.444062
0.444195
0.193474
0.149446
0.149502
0.15832
0.149557
0.210655
0.452775
0.45292
0.305601
0.201774
0.140688
0.15838
0.444354
0.453092
0.444541
0.453292
0.444757
0.453522
0.445004
0.453784
0.445283
0.454079
0.445595
0.45441
0.445943
0.454779
0.446328
0.455188
0.446752
0.45564
0.447215
0.456135
0.44772
0.324229
0.324447
0.105632
0.149611
0.464543
0.465072
0.462575
0.461501
0.391968
0.400587
0.391957
0.400587
0.391969
0.400611
0.392004
0.400659
0.392063
0.400731
0.392146
0.400826
0.409405
0.409514
0.400947
0.409648
0.401092
0.409808
0.401263
0.409994
0.40146
0.410207
0.401683
0.410447
0.401932
0.410716
0.402209
0.411013
0.402513
0.411339
0.418734
0.418089
0.419827
0.420176
0.402844
0.428651
0.429025
0.437488
0.437886
0.446336
0.44676
0.438321
0.447225
0.455197
0.394006
0.394339
0.438793
0.385489
0.38582
0.44773
0.392721
0.15844
0.158438
0.439301
0.376959
0.377286
0.315624
0.315835
0.473461
0.474026
0.448277
0.149663
0.218778
0.454787
0.463636
0.463245
0.472084
0.471715
0.140637
0.131877
0.13183
0.123069
0.123027
0.368414
0.368733
0.307005
0.307209
0.316056
0.30742
0.316283
0.307636
0.316514
0.307853
0.316747
0.308071
0.299175
0.158493
0.439844
0.316979
0.325655
0.299376
0.29048
0.359851
0.36016
0.359555
0.482396
0.482999
0.480548
0.480202
0.480937
0.298373
0.114264
0.114226
0.114302
0.448862
0.351271
0.351567
0.360479
0.35187
0.360803
0.342953
0.343238
0.334318
0.334584
0.325662
0.438782
0.439289
0.149711
0.290664
0.281769
0.325909
0.316986
0.325902
0.334577
0.201564
0.298185
0.132097
0.461371
0.470101
0.469986
0.47872
0.478619
0.440417
0.158544
0.167327
0.334847
0.33484
0.317213
0.30829
0.343515
0.281936
0.273043
0.491348
0.491993
0.483667
0.49271
0.487361
0.487274
0.489033
0.488712
0.202029
0.105496
0.105531
0.308497
0.299577
0.449482
0.457906
0.149755
0.16738
0.176165
0.273194
0.343795
0.202119
0.490772
0.271192
0.487471
0.22749
0.245136
0.140924
0.484402
0.35247
0.0792554
0.335095
0.496121
0.49624
0.501009
0.501781
0.497544
0.497248
0.488428
0.496987
0.488178
0.496758
0.48796
0.49656
0.487772
0.496389
0.487611
0.496245
0.487475
0.496125
0.487365
0.496028
0.441015
0.43748
0.0967239
0.0967547
0.299764
0.290847
0.105713
0.458577
0.466977
0.140962
0.132132
0.264303
0.264438
0.210842
0.436235
0.176222
0.352767
0.325412
0.383473
0.430334
0.430837
0.282096
0.308695
0.504899
0.505028
0.505366
0.506086
0.506395
0.132164
0.123336
0.291015
0.282102
0.467706
0.476079
0.272884
0.281942
0.273199
0.273342
0.264444
0.358758
0.0879471
0.0879196
0.0879744
0.510049
0.510881
0.504798
0.504715
0.185008
0.185067
0.289546
0.289372
0.409511
0.314247
0.314266
0.409225
0.487277
0.478542
0.476874
0.485216
0.140995
0.123362
0.114536
0.264569
0.255675
0.210941
0.431934
0.4325
0.421864
0.422356
0.255785
0.246896
0.246791
0.238015
0.513699
0.513836
0.513585
0.514944
0.515266
0.513497
0.513426
0.332093
0.431366
0.422867
0.431916
0.42339
0.432481
0.423918
0.433049
0.238106
0.22923
0.486085
0.49439
0.493513
0.502648
0.501786
0.510883
0.51182
0.520013
0.519119
0.521033
0.273048
0.219661
0.0791421
0.0791178
0.114558
0.105733
0.0793013
0.46847
0.519117
0.520014
0.518332
0.511819
0.521037
0.423408
0.423936
0.193856
0.193917
0.185118
0.322902
0.322932
0.229308
0.220437
0.414838
0.415324
0.406225
0.406667
0.397571
0.358142
0.352167
0.122986
0.11419
0.122947
0.114155
0.122909
0.114122
0.122874
0.114091
0.105336
0.105309
0.0965522
0.0965294
0.105285
0.096509
0.105264
0.0964914
0.105246
0.0964768
0.105232
0.0964653
0.105221
0.0964571
0.105213
0.0964522
0.10521
0.0964505
0.10521
0.0964522
0.105213
0.0964573
0.105221
0.0964656
0.105232
0.0964772
0.105247
0.0964918
0.105265
0.114017
0.0965096
0.114038
0.122787
0.122813
0.131557
0.0877339
0.087751
0.0876928
0.131588
0.140329
0.140298
0.149066
0.122842
0.0876929
0.0877334
0.113968
0.131622
0.122875
0.0789729
0.078989
0.149035
0.157798
0.157834
0.166561
0.19397
0.264682
0.512875
0.42444
0.10575
0.0969279
0.424457
0.522397
0.522297
0.131659
0.12291
0.166604
0.175326
0.202772
0.237914
0.219768
0.175284
0.228486
0.228372
0.288343
0.2884
0.113974
0.479001
0.114016
0.415307
0.433608
0.202825
0.528216
0.523825
0.52416
0.522222
0.522162
0.52918
0.530292
0.397969
0.38888
0.114574
0.522205
0.184043
0.414346
0.48721
0.478487
0.383333
0.522301
0.478623
0.413369
0.412912
0.0702089
0.0702239
0.0701958
0.0703396
0.0703183
0.220501
0.211635
0.211572
0.202775
0.202828
0.193972
0.0969408
0.0881202
0.0881072
0.0793009
0.0792881
0.0793105
0.0704927
0.185161
0.522192
0.41578
0.211632
0.202713
0.131699
0.122948
0.50518
0.513997
0.314303
0.32298
0.279697
0.279758
0.462894
0.361444
0.36176
0.194014
0.185163
0.531576
0.0704994
0.0528723
0.229373
0.25555
0.25567
0.114156
0.114191
0.105397
0.10543
0.0966337
0.0966635
0.0878662
0.0878931
0.0790945
0.0791187
0.0703191
0.0703403
0.50536
0.514186
0.522836
0.523035
0.514403
0.523262
0.514652
0.523521
0.314359
0.323048
0.314433
0.323134
0.314525
0.323239
0.331839
0.331958
0.323363
0.332096
0.323505
0.332253
0.323663
0.288472
0.279834
0.271111
0.27119
0.262458
0.26254
0.279925
0.340548
0.442218
0.442818
0.45143
0.478544
0.0528524
0.211686
0.389232
0.380153
0.532146
0.532417
0.531124
0.531036
0.53104
0.531129
0.539607
0.514028
0.175375
0.184001
0.192755
0.237195
0.237073
0.331599
0.394695
0.523816
0.532724
0.253799
0.253882
0.469897
0.469829
0.404404
0.403979
0.06143
0.0614195
0.061683
0.532733
0.532425
0.533081
0.52454
0.533476
0.332427
0.323838
0.341007
0.228602
0.193789
0.487167
0.123305
0.06154
0.0615584
0.0615217
0.0615393
0.0615211
0.0615577
0.366144
0.374988
0.504643
0.505713
0.185196
0.17635
0.176316
0.167506
0.167532
0.158693
0.541034
0.523494
0.5316
0.5235
0.0616873
0.398339
0.452074
0.380462
0.371395
0.541059
0.542035
0.542446
0.548991
0.532767
0.541023
0.105463
0.0703617
0.0615767
0.131742
0.140491
0.167472
0.3711
0.362352
0.362609
0.353578
0.202211
0.524151
0.533072
0.461188
0.461131
0.46127
0.395458
0.395063
0.131698
0.370438
0.370772
0.362061
0.371091
0.362344
0.371386
0.362601
0.353569
0.52497
0.0526519
0.0526438
0.0528722
0.0528675
0.158712
0.149877
0.539879
0.539802
0.530969
0.539746
0.539976
0.530922
0.539709
0.539883
0.539981
0.371805
0.353785
0.344768
0.194046
0.070503
0.353798
0.344781
0.220498
0.220552
0.211727
0.220433
0.332618
0.324029
0.315239
0.315428
0.324234
0.315628
0.245892
0.245764
0.192713
0.183965
0.201461
0.20151
0.22937
0.229422
0.238248
0.306815
0.30701
0.140539
0.149285
0.0877697
0.452494
0.452447
0.264564
0.403574
0.394686
0.386163
0.403192
0.394331
0.402836
0.0877075
0.175325
0.430345
0.0526615
0.299571
0.47295
0.289726
0.219875
0.228716
0.253564
0.332423
0.20146
0.123196
0.462054
0.140788
0.54081
0.456145
0.393416
0.392384
0.479386
0.513376
0.308076
0.541662
0.542025
0.533467
0.542437
0.298005
0.289208
0.297836
0.417918
0.376651
0.236203
0.314762
0.331598
0.246024
0.369407
0.369754
0.378352
0.271047
0.463237
0.149857
0.141044
0.141058
0.132228
0.333279
0.262633
0.253976
0.175181
0.175174
0.166443
0.16644
0.157703
0.157703
0.419221
0.418359
0.434146
0.175972
0.228053
0.26239
0.245002
0.245767
0.193222
0.539806
0.210944
0.426913
0.541351
0.541068
0.15771
0.515258
0.0879206
0.122765
0.167207
0.492717
0.501014
0.505806
0.245134
0.245061
0.547656
0.465652
0.201346
0.436791
0.334311
0.096785
0.088001
0.105396
0.16688
0.236956
0.440995
0.0877911
0.0790066
0.491999
0.105712
0.393999
0.402506
0.393692
0.402203
0.39341
0.401926
0.393153
0.401677
0.392922
0.404845
0.496301
0.0527731
0.0527884
0.0527419
0.0527266
0.0527569
0.0527725
0.0352482
0.0528745
0.497326
0.550589
0.238227
0.24712
0.185219
0.541507
0.55021
0.548995
0.524372
0.132237
0.123411
0.54271
0.344956
0.335951
0.344965
0.335963
0.362835
0.549744
0.549512
0.548747
0.548854
0.550015
0.549752
0.540818
0.549521
0.540599
0.549318
0.551027
0.551601
0.542937
0.552116
0.558458
0.560254
0.558398
0.556974
0.559854
0.550637
0.548594
0.548664
0.548597
0.0703827
0.141023
0.324452
0.210209
0.210266
0.255421
0.246671
0.061504
0.0527119
0.335781
0.326975
0.327128
0.318153
0.362069
0.24564
0.236843
0.21998
0.271773
0.27192
0.176314
0.176348
0.262738
0.496554
0.500326
0.305814
0.515623
0.506738
0.516044
0.148962
0.148965
0.0614108
0.0526372
0.543478
0.552536
0.478489
0.531239
0.469827
0.236388
0.236461
0.236325
0.192679
0.443814
0.443779
0.370094
0.210161
0.491355
0.401455
0.385482
0.379453
0.15771
0.0968144
0.380475
0.380918
0.0880263
0.0792131
0.043946
0.0438821
0.0438905
0.0439712
0.0439583
0.0439841
0.0440577
0.0440531
0.141064
0.318277
0.309316
0.158262
0.123401
0.114586
0.114592
0.105771
0.254718
0.533916
0.542904
0.551447
0.551935
0.388504
0.0790073
0.25486
0.254443
0.105598
0.149234
0.158026
0.530893
0.53969
0.54852
0.52216
0.469783
0.0790264
0.0702401
0.0702235
0.0614553
0.0614417
0.0526721
0.0526612
0.0526842
0.0438997
0.0439101
0.392717
0.460689
0.461381
0.452684
0.459971
0.175174
0.0439845
0.0439969
0.0528032
0.0440088
0.0438686
0.0438638
0.0526321
0.0438603
0.0526287
0.0438582
0.052627
0.0438575
0.0526269
0.0438582
0.0526286
0.0438603
0.052632
0.0438637
0.353437
0.247096
0.256007
0.229302
0.560507
0.561018
0.552492
0.561608
0.566414
0.565095
0.557641
0.557759
0.558722
0.105772
0.0969533
0.33611
0.327119
0.326965
0.318145
0.317994
0.309185
0.309309
0.300361
0.309038
0.300165
0.291474
0.291417
0.308065
0.194067
0.462031
0.0528172
0.04402
0.333049
0.052637
0.555763
0.563992
0.544056
0.553149
0.167505
0.167531
0.176373
0.167548
0.158711
0.176388
0.158721
0.149888
0.554741
0.514042
0.515286
0.505777
0.506927
0.497388
0.516571
0.498396
0.488858
0.548982
0.557899
0.105366
0.499708
0.176274
0.167431
0.176224
0.290291
0.211499
0.202642
0.211417
0.202565
0.21133
0.412067
0.470241
0.289053
0.297679
0.280417
0.122841
0.131621
0.131587
0.140363
0.140328
0.246676
0.237805
0.246553
0.237689
0.246426
0.237569
0.246294
0.25515
0.255007
0.263862
0.263708
0.272561
0.272396
0.281246
0.281424
0.290106
0.175827
0.441626
0.279604
0.361129
0.323132
0.420556
0.201566
0.21033
0.20163
0.305672
0.0527878
0.0439965
0.0528026
0.0440084
0.0528167
0.0440196
0.0528298
0.131786
0.210092
0.340435
0.349135
0.349029
0.349262
0.35784
0.357982
0.548511
0.51466
0.210746
0.202639
0.245312
0.437125
0.220554
0.229425
0.559
0.255881
0.26478
0.273589
0.273688
0.264862
0.273768
0.264924
0.282505
0.417992
0.426672
0.309193
0.466294
0.140586
0.461129
0.105763
0.220593
0.229461
0.220618
0.0790938
0.157767
0.149009
0.28107
0.0613948
0.384388
0.03524
0.389581
0.389871
0.398679
0.0438685
0.406652
0.0614296
0.0792348
0.535023
0.406209
0.0528607
0.0440298
0.0352025
0.0350884
0.0351247
0.0351825
0.0351333
0.0351168
0.18523
0.453242
0.132239
0.32725
0.273827
0.291195
0.0969515
0.0881352
0.309412
0.489728
0.480211
0.379696
0.558467
0.558713
0.557357
0.557357
0.55826
0.558072
0.560319
0.561154
0.568042
0.566417
0.570092
0.562501
0.557472
0.557549
0.149892
0.141064
0.141057
0.132237
0.132239
0.123415
0.398975
0.407824
0.256004
0.2472
0.480952
0.471464
0.470776
0.462055
0.461406
0.452705
0.453257
0.443934
0.140588
0.131832
0.158082
0.16682
0.246161
0.263554
0.0881347
0.0793189
0.0793173
0.070503
0.264906
0.264852
0.202482
0.211237
0.193718
0.167382
0.158592
0.210402
0.2017
0.219097
0.218959
0.238182
0.333285
0.324681
0.228829
0.237565
0.443409
0.434658
0.435102
0.425852
0.426223
0.417001
0.254314
0.326798
0.335574
0.202561
0.211414
0.193715
0.061487
0.0526978
0.0439218
0.26355
0.370103
0.300465
0.317822
0.308871
0.280571
0.0878401
0.410202
0.28891
0.297535
0.410709
0.280727
0.185218
0.18523
0.263704
0.411331
0.0965301
0.534427
0.36655
0.366708
0.507135
0.498253
0.497873
0.140218
0.140218
0.140224
0.306454
0.344558
0.322893
0.331539
0.499714
0.50867
0.366415
0.10563
0.114415
0.0880501
0.157972
0.505033
0.0877077
0.227708
0.227782
0.409989
0.495899
0.495868
0.487146
0.495858
0.489389
0.489026
0.461095
0.452446
0.50459
0.525452
0.256027
0.256071
0.495325
0.0613989
0.544762
0.553886
0.562292
0.563076
0.530884
0.435147
0.435123
0.5401
0.531371
0.0702581
0.0439214
0.0351424
0.490778
0.482403
0.384888
0.183938
0.192653
0.149101
0.149065
0.140297
0.149034
0.140271
0.149141
0.149008
0.14025
0.470746
0.471316
0.0614037
0.486959
0.03511
0.0351171
0.035094
0.0350885
0.0350939
0.0350982
0.0352022
0.0352198
0.0352275
0.0352441
0.035247
0.0706211
0.0617072
0.2649
0.105768
0.141063
0.572775
0.408125
0.417003
0.417318
0.426224
0.499341
0.158722
0.0616822
0.0525418
0.30054
0.229483
0.123413
0.114592
0.132233
0.220629
0.194074
0.18523
0.176392
0.574538
0.576009
0.567651
0.567772
0.567973
0.567254
0.567113
0.567733
0.568029
0.575973
0.574497
0.569627
0.569151
0.566564
0.566456
0.566479
0.566255
0.566478
0.58017
0.472082
0.0793168
0.25578
0.0528303
0.0440302
0.0352201
0.0352278
0.0616278
0.553135
0.158546
0.167329
0.563069
0.572533
0.57155
0.149757
0.19364
0.341873
0.280731
0.333532
0.324919
0.416645
0.407821
0.40812
0.398965
0.326599
0.132228
0.202478
0.193637
0.140639
0.131878
0.254079
0.0614105
0.272392
0.418729
0.546526
0.47003
0.317632
0.361453
0.335346
0.499171
0.210481
0.201776
0.192991
0.193064
0.548521
0.184876
0.194066
0.194074
0.185231
0.0881297
0.263112
0.262978
0.549134
0.202917
0.0439717
0.0351829
0.0351727
0.540235
0.114378
0.131509
0.131492
0.300095
0.141043
0.327247
0.336233
0.0526724
0.114092
0.281774
0.211138
0.460713
0.299934
0.291164
0.298769
0.506746
0.429861
0.290296
0.298977
0.298773
0.167429
0.255003
0.5404
0.0350984
0.27965
0.12307
0.123113
0.114304
0.114342
0.105532
0.105566
0.0967558
0.0967862
0.305911
0.297191
0.297291
0.557375
0.566226
0.566264
0.383567
0.418957
0.531916
0.288304
0.13147
0.131472
0.271388
0.46407
0.487606
0.297107
0.288474
0.288401
0.377629
0.317206
0.245
0.236273
0.244951
0.22759
0.236544
0.227864
0.236636
0.227953
0.219175
0.131923
0.409224
0.149393
0.375267
0.37544
0.366887
0.375637
0.36709
0.375856
0.367314
0.376099
0.367559
0.358763
0.359009
0.54557
0.324024
0.331539
0.340176
0.426782
0.435363
0.435485
0.444065
0.444199
0.452779
0.452924
0.444359
0.453097
0.444547
0.453297
0.444763
0.453528
0.44501
0.436241
0.435807
0.184274
0.184344
0.435802
0.140403
0.469761
0.263256
0.341632
0.2634
0.340186
0.348814
0.348836
0.357456
0.357489
0.348814
0.3661
0.366145
0.366077
0.272556
0.461186
0.317831
0.487939
0.557949
0.316061
0.270994
0.270957
0.28042
0.289211
0.289056
0.496752
0.487954
0.488172
0.32659
0.567494
0.262292
0.41433
0.489797
0.175549
0.324913
0.448265
0.201388
0.370781
0.0878144
0.228153
0.113984
0.175218
0.513493
0.348879
0.544049
0.506851
0.498353
0.507995
0.499303
0.149892
0.149889
0.307641
0.475328
0.476067
0.466964
0.0615939
0.184874
0.157876
0.227546
0.436504
0.218856
0.238251
0.219262
0.246891
0.445289
0.48093
0.531708
0.523042
0.157797
0.140223
0.264677
0.1848
0.114592
0.105772
0.105769
0.0969519
0.218902
0.374887
0.55765
0.0264357
0.522844
0.566973
0.0176198
0.461847
0.48186
0.461506
0.157742
0.0969532
0.0881354
0.0881321
0.157874
0.201365
0.210093
0.539748
0.0439332
0.035152
0.0793177
0.397557
0.0527113
0.175196
0.0528226
0.0439961
0.0880908
0.15792
0.149185
0.15797
0.149233
0.0792547
0.192636
0.44392
0.565089
0.397142
0.416643
0.545577
0.444394
0.453737
0.573428
0.0528416
0.0352398
0.026418
0.026412
0.0263836
0.0263759
0.0263912
0.026341
0.0263608
0.0263226
0.026434
0.0263262
0.0351035
0.0263305
0.0264178
0.0263681
0.0264355
0.0352483
0.0263198
0.0264232
0.0264358
0.035248
0.026435
0.0352461
0.04406
0.0264117
0.309481
0.399251
0.390086
0.389895
0.381157
0.380977
0.372081
0.39921
0.132249
0.326964
0.203032
0.211789
0.211903
0.220628
0.584327
0.578498
0.576721
0.575575
0.576071
0.571522
0.570882
0.584082
0.0793849
0.0437315
0.035181
0.0616426
0.273811
0.273977
0.282588
0.282498
0.166882
0.149713
0.0264233
0.333788
0.0439105
0.0351336
0.0351428
0.434162
0.442838
0.237685
0.228938
0.246421
0.0614708
0.0702588
0.536458
0.255876
0.281241