<VTKFile type='UnstructuredGrid' version='0.1' byte_order='BigEndian'>
<UnstructuredGrid>
<Piece NumberOfPoints='164' NumberOfCells='281'>
<Points>
<DataArray type='Float64' NumberOfComponents='3' Format='ascii'>
0 0 0
0 1 0
1.01349 0.965967 0
0.985287 -0.0244468 0
0 0.3 0
0.285525 -0.00629991 0
0.0643031 0.291512 0
0.125595 0.268242 0
0.180448 0.231245 0
0.225899 0.182561 0
0.259658 0.124713 0
0.2799 0.060677 0
0 0.377778 0
0 0.455556 0
0 0.533333 0
0 0.611111 0
0 0.688889 0
0 0.766667 0
0 0.844444 0
0 0.922222 0
1.00727 0.858657 0
1.00344 0.750007 0
1.00055 0.640417 0
0.99804 0.530243 0
0.995617 0.419653 0
0.99317 0.308797 0
0.990629 0.197774 0
0.987996 0.0866713 0
0.363305 -0.00847784 0
0.44106 -0.0105661 0
0.518774 -0.012621 0
0.596483 -0.0146508 0
0.674204 -0.0166614 0
0.751947 -0.0186547 0
0.829717 -0.0206189 0
0.907502 -0.0225436 0
0.113832 0.998087 0
0.226887 0.996056 0
0.339624 0.993601 0
0.452104 0.990791 0
0.564387 0.987686 0
0.676607 0.984258 0
0.788938 0.980306 0
0.901366 0.975346 0
0.252312 0.241458 0
0.0728219 0.573902 0
0.553082 0.0514658 0
0.50569 0.893293 0
0.892068 0.479571 0
0.901178 0.256521 0
0.27958 0.902812 0
0.727902 0.89517 0
0.0768663 0.72832 0
0.712572 0.0448714 0
0.112917 0.334865 0
0.325612 0.110763 0
0.910464 0.696989 0
0.0662655 0.873565 0
0.863052 0.0497573 0
0.303589 0.181277 0
0.321832 0.250891 0
0.281102 0.309651 0
0.354288 0.318088 0
0.312988 0.381369 0
0.389881 0.388901 0
0.344398 0.453521 0
0.425953 0.462729 0
0.473948 0.391444 0
0.513302 0.470087 0
0.376912 0.529345 0
0.563829 0.393301 0
0.389604 0.262985 0
0.604469 0.476773 0
0.551974 0.554482 0
0.263609 0.44683 0
0.646967 0.562208 0
0.655737 0.39835 0
0.614204 0.314569 0
0.592216 0.639962 0
0.695175 0.648507 0
0.706793 0.319097 0
0.662931 0.237364 0
0.573962 0.233326 0
0.500894 0.631927 0
0.627459 0.723082 0
0.746902 0.566099 0
0.746496 0.404026 0
0.622427 0.166806 0
0.735881 0.738253 0
0.197373 0.303808 0
0.171328 0.372533 0
0.120115 0.414601 0
0.741058 0.247172 0
0.538187 0.163826 0
0.37484 0.157452 0
0.392911 0.0954484 0
0.492066 0.220393 0
0.457788 0.144083 0
0.469655 0.057206 0
0.154685 0.907304 0
0.220172 0.813992 0
0.325023 0.810644 0
0.270577 0.727807 0
0.368092 0.719827 0
0.308854 0.645752 0
0.22106 0.649164 0
0.257399 0.576777 0
0.171692 0.575642 0
0.134056 0.648907 0
0.122045 0.501909 0
0.429508 0.804836 0
0.903351 0.133779 0
0.804982 0.116901 0
0.190005 0.436047 0
0.725551 0.167745 0
0.514154 0.306875 0
0.173721 0.730317 0
0.123784 0.809898 0
0.901176 0.365573 0
0.613056 0.894326 0
0.907323 0.591198 0
0.388081 0.899675 0
0.544203 0.791715 0
0.83666 0.874358 0
0.632008 0.0466825 0
0.813186 0.646645 0
0.805929 0.317283 0
0.697106 0.482263 0
0.918705 0.804806 0
0.462192 0.547684 0
0.428666 0.32394 0
0.400212 0.624058 0
0.0580683 0.650057 0
0.457556 0.717135 0
0.784144 0.046464 0
0.0722979 0.452155 0
0.215327 0.510785 0
0.790752 0.483853 0
0.820556 0.201817 0
0.0571207 0.394783 0
0.341446 0.0500444 0
0.239249 0.373313 0
0.831068 0.762901 0
0.670183 0.809896 0
0.297474 0.515622 0
0.544432 0.700802 0
0.827269 0.41005 0
0.0533757 0.804654 0
0.421392 0.2117 0
0.926678 0.89241 0
0.830009 0.55346 0
0.40339 0.0346856 0
0.6713 0.10612 0
0.929445 0.0446419 0
0.066933 0.94039 0
0.763885 0.816156 0
0.589608 0.10548 0
0.0539448 0.506596 0
0.521668 0.104401 0
0.328172 0.578358 0
0.362107 0.21323 0
0.739715 0.0964177 0
0.0440033 0.337824 0
0.449183 0.265178 0
</DataArray>
</Points>
<CellData Scalars='scalars'>
<DataArray type='Float64' Name='Parts' format='ascii'>
1
1
1
1
1
1
1
1
1
1
1
1
1
1
1
1
1
1
1
1
1
1
1
1
1
1
1
1
1
1
1
1
1
1
1
1
1
1
1
1
1
1
1
1
1
1
1
1
1
1
1
1
1
1
1
1
1
1
1
1
1
1
1
1
1
1
1
1
1
1
1
1
1
1
1
1
1
1
1
1
1
1
1
1
1
1
1
1
1
1
1
1
1
1
1
1
1
1
1
1
1
1
1
1
1
1
1
1
1
1
1
1
1
1
1
1
1
1
1
1
1
1
1
1
1
1
1
1
1
1
1
1
1
1
1
1
1
1
1
1
1
1
1
1
1
1
1
1
1
1
1
1
1
1
1
1
1
1
1
1
1
1
1
1
1
1
1
1
1
1
1
1
1
1
1
1
1
1
1
1
1
1
1
1
1
1
1
1
1
1
1
1
1
1
1
1
1
1
1
1
1
1
1
1
1
1
1
1
1
1
1
1
1
1
1
1
1
1
1
1
1
1
1
1
1
1
1
1
1
1
1
1
1
1
1
1
1
1
1
1
1
1
1
1
1
1
1
1
1
1
1
1
1
1
1
1
1
1
1
1
1
1
1
1
1
1
1
1
1
1
1
1
1
1
1
1
1
1
1
1
1
</DataArray>
<DataArray type='Float64' Name='e_x' format='ascii'>
0.00220012
0.00220205
0.0126914
0.00326725
-0.0138351
7.06265e-05
0.000903772
-0.00268287
-0.00429581
0.00130614
0.00840392
0.0127561
0.00704483
0.016055
0.00082277
-0.0031149
0.0106988
0.000696457
-0.00844616
-0.0125358
0.00858092
8.36483e-05
0.00104276
-0.00682564
0.000624511
0.00295305
0.000873478
-0.00429921
-0.00840504
-0.00458586
0.00272529
-0.000909049
-0.0172219
-6.31168e-05
0.00130877
0.00841769
8.16782e-05
-0.024491
0.000351292
0.000741219
0.00525824
-0.00852629
0.00036196
0.00991578
-0.000909258
0.000831899
0.00538817
-0.000825372
0.00325859
0.014435
0.00574482
0.00879944
0.00441852
0.0109622
-0.00852392
0.0105981
0.00147174
-0.00416263
-0.0126221
-0.000200009
0.00229995
-0.0127111
0.00271784
-0.000177118
0.00228886
0.0025669
0.00340547
-0.000476701
-0.000490935
0.00217082
0.00265397
0.00357987
-0.000769124
-0.0174917
0.000201034
-0.00416917
-0.00607094
-0.00749852
0.00363692
-0.00668018
0.000335923
-0.0103587
0.00145008
0.00377834
-0.0033299
-0.000828985
-0.014634
2.98981e-05
-0.000392455
0.00663966
0.0116801
-1.69606e-05
-0.010551
0.00100245
0.0024786
-0.00752832
-0.00345722
0.00253502
-0.00541725
-0.00997276
0.0191909
-0.00185523
0.00397373
-0.00107287
-0.000306338
0.00319457
-0.00135015
-0.0103824
0.00481152
-0.0041817
0.00199583
0.00174648
-0.00218833
-0.0109838
-0.00354949
-0.00351765
0.00157063
-0.0118513
0.000903151
-0.0123198
0.000940608
-0.00172178
0.00694911
0.000878901
0.00220882
0.0016203
-0.000752463
0.00236158
0.0236002
0.0012176
-0.00595868
-0.00622728
0.00073126
-0.000989563
0.00776007
0.0110791
0.00118382
0.00156829
0.000999235
0.00211984
0.00104597
0.00614966
0.00324331
0.00307813
-0.000388742
0.00431485
0.00561784
0.00179347
0.00724451
0.00515463
0.000843483
0.0107352
0.00767084
-0.00406071
0.000450548
0.00840901
0.00211417
0.00203706
-1.43013e-05
0.0085205
0.00157444
0.00776613
0.00335979
-0.00229969
9.42104e-05
0.0195563
0.00438108
0.00521999
0.0032012
0.00693115
0.000269851
0.00288283
0.00151547
0.000900381
0.0074223
0.00560094
0.00125156
0.000890069
0.00026942
0.00237428
0.00195158
0.00259122
0.000486904
0.00232165
-0.0116004
-9.20977e-05
0.00578361
-0.0104589
-0.00915483
0.00123891
0.00549898
0.000459347
0.000758852
-0.00772976
-0.00010428
-0.00223345
0.00472618
0.00338643
0.00232261
8.79397e-05
0.00119824
0.00416977
-0.000876695
0.00676384
0.000100823
-0.00265123
-0.000889778
0.0217707
0.000570679
0.00640999
-4.58001e-05
-0.00224106
0.00472451
0.00442396
-0.000498008
-0.00770494
0.00498902
0.000204588
0.0140727
0.00154415
0.00137689
0.00844411
0.000113216
0.00030233
-0.00546001
0.000193364
0.0016074
0.000890795
-0.005571
-0.00168375
0.00926944
0.00233508
0.00124213
0.0012187
-0.0100529
0.00377986
-0.00178132
-0.00212648
0.00480863
0.000398308
-0.00385938
0.00389402
0.00654352
0.000969161
0.00230905
0.00126176
-0.00177904
-0.00752788
0.000283368
0.000545588
-0.000252524
0.00400179
0.00397991
0.00659607
0.00543333
-0.0152781
4.86801e-05
-0.00269157
0.00309558
-8.78444e-05
-0.016724
0.0349933
0.000687986
-0.00138779
-0.0011622
0.00511152
0.00088794
0.000752348
0.000831209
0.00531761
0.000758949
0.00232951
0.000476893
0.00103672
0.0150572
0.00454923
0.000936051
0.0018694
0.00454836
0.00185334
0.00103447
</DataArray>
<DataArray type='Float64' Name='e_y' format='ascii'>
-0.00109873
0.000685847
-0.00254782
-0.00038456
0.001968
0.000223786
3.36308e-05
0.000164322
0.00090971
-0.000419168
0.00140396
0
-0.00209084
-0.00428209
-0.000299385
0.0002734
-0.00343166
-0.000185577
0.00184746
0.00246578
-0.00341083
0.000410822
0.000545932
0.00134586
-0.000229127
-0.00237267
0.000369053
1.31018e-05
0.00210216
0.000919599
-0.00181193
0.000933514
0.00521139
9.96909e-05
-0.000599448
-0.00136172
-6.25873e-05
0.00572916
1.13445e-05
-0.00165627
-0.00322651
0.00179099
0.00136368
-0.00400507
-0.000674708
0.000938829
-0.00190822
-0.000574238
0.000453495
-0.000984583
-0.00135266
-0.00130725
-0.00267105
-0.00337818
0.00242697
-0.00282662
-0.000494201
0.000688951
0.00337945
0.00273346
-0.00141301
0.00353371
-0.00113002
0.000504426
-0.00141743
-0.0015363
-0.00233507
-0.000555908
-0.000644845
-0.0021319
-0.0010641
-0.00230392
0.00261994
0.00539092
7.23053e-05
0.000499521
0.00154681
0.00163474
-0.00156971
0.00196083
-0.000120307
0.00268659
-0.000755234
-0.00180627
0.000130934
0.000338995
0.00434421
0.000792744
0.00131255
-0.00331712
-0.00224895
0.000121462
0.00290791
0.00190011
-0.000976247
0.00200216
0.000426243
-0.00197509
0.00139628
0.00266054
-0.00516739
0.00651114
-0.00174944
0.00468798
0.0022979
-0.00155297
0.00485117
0.0030352
-0.00294719
0.000402667
-0.00083825
-0.000317518
0.00843745
0.00311175
0.0136864
0.00102806
-0.000735637
0.00396428
-0.00142734
0.00362426
-0.000325678
0.00198707
-0.00352259
-0.000338148
0
-0.000461479
-0.00062965
-0.00113658
-0.00403279
4.80965e-05
0.00097294
0.0221544
-0.000251414
0.0064808
0.00056913
-0.000547465
-0.000365099
-0.000391323
-0.00111988
-0.00159925
-1.55068e-05
-0.00356278
-0.00221084
-0.0018384
0.000373457
-0.00286616
-0.00354305
-0.000871526
-0.00187299
-0.000933673
-0.000597014
-0.00240111
-0.00262869
0
-0.000160145
-0.00337068
-0.00140811
-0.00048249
-0.00100344
-0.00387208
-0.000797453
-0.00405925
-0.00212288
0.00865718
0.00264771
-0.00237166
-0.00291037
-0.00318954
-0.000589054
-0.00385101
4.2213e-05
-0.000986831
-0.000184193
3.15157e-05
-0.00373919
-0.00340966
-0.000222273
-0.000273254
0.00281879
-0.000995839
-0.000448517
-0.00220994
0.000565292
-0.00116517
0
8.9378e-05
-0.00341958
0.0342123
0.0119892
0.0001874
0
-0.00132638
-0.00135776
0.00120968
0.00125423
-0.000622125
-0.00230135
-0.00267488
-0.000844907
0.00155991
-0.000533588
-0.00289368
0
-0.00335526
7.37222e-06
0.000347937
-0.000678297
0
-0.000163532
-0.00384363
0.00291587
-1.02071e-05
-0.00227984
-0.0028621
0.00425229
-5.41106e-05
-0.00246186
0.000168169
-0.00200171
-0.000214586
-0.000378111
-0.000676244
-0.000720254
-8.11465e-05
-0.000115195
0.000144473
-0.000587608
0.000833264
0.0011008
-0.000661474
-0.00373344
-0.000915286
0.000334236
0.000666063
0.000667226
-0.00260316
0.00847365
0.00125143
-0.00239821
0.00265415
0.00919007
-0.00174471
-0.00331893
-0.00125883
-0.00174141
1.00994e-05
0.000773948
0
-7.49681e-06
-0.000190662
0.0026576
-0.00255056
0.000456068
-0.00276842
-0.00260085
0.00199325
-2.65321e-06
0.00938997
-0.00179937
3.80744e-05
0
-0.00657168
-0.000256677
-0.000474626
-0.000877643
0.000938045
-0.000315744
-0.000114832
0.00130215
-0.00321272
-0.000239483
-0.00184126
0.00132254
0.000226966
-0.000359294
-0.00178444
-0.000299263
-0.000629716
-0.00275106
-0.00110848
-0.000204488
</DataArray>
<DataArray type='Float64' Name='gamma_xy' format='ascii'>
0.0106189
0.0105016
-0.00816808
-0.00580973
0.0116767
0.000463338
0.0022553
0.00379297
0.0101489
-6.56857e-05
0.00502288
0.00773337
-0.00424442
0.0012542
-0.000264861
0.00621545
0.00886318
0.00287523
0.00907115
0.0082679
0.00713685
0.002867
0.00391296
0.00451488
0.00163449
0.0118675
0.00907454
0.0102748
0.00601981
0.00437197
0.000723537
0.010585
0.0035986
3.18163e-05
-1.10878e-05
0.0119917
-3.73262e-05
0.00852239
0.000809019
0.010827
0.00562259
0.0103772
0.0039033
0.00304812
0.010452
0.0114148
0.012314
0.0116193
-0.00505154
-0.012344
0.00913437
0.0081966
0.00629028
0.00136036
0.00172688
-0.00433442
0.000834547
0.0117431
0.00824062
0.0107597
0.012388
0.00259963
0.00056497
0.00067784
0.00213243
0.00411255
0.00318665
0.0126007
0.0116942
0.0109997
0.00287232
0.00607965
0.00287352
0.00386727
0.000520265
0.0104522
0.00587905
0.0103472
0.00179129
0.000795125
-0.000113526
0.00705607
0.00148209
0.004122
0.0119279
0.0117653
0.0028791
0.00118956
0.0015806
-0.00152968
0.0065157
-4.01264e-05
0.00138955
0.0100529
0.00489193
0.00715563
0.00972294
0.0107728
-0.000807103
0.000234535
-0.0064154
0.0054186
5.00585e-05
0.00345754
0.00230527
0.00692768
0.00391591
0.00234597
0.0030443
0.00901585
-0.000502849
0.00346498
0.00491041
-0.00146003
0.00684987
-0.00315457
0.00285708
-0.00142538
0.0104278
0.00240128
-0.000243785
0.00491503
0.00780419
-1.199e-05
0.00895568
0.00431449
0.00854253
0.00643206
-0.012313
-0.00183745
0.00959781
0.00968581
0.000200084
0.0102134
-0.00997637
0.0117841
0.000161257
0.00989913
0.00937594
0.0102709
-0.00279365
0.00116197
0.00997916
0.00834719
0.00959801
0.00842823
0.00848074
-0.000738291
-0.00648756
0.010242
0.0106714
0.00518681
0.0123902
0.00940514
0.000347975
-0.000290126
0.0103004
0.00717309
0.0108534
0.00861596
-0.00186436
0.00438935
0.00883225
0.00797603
0.00776029
0.00811211
0.00848922
0.0109079
-0.00369891
0.00859909
0.000768928
-0.00202633
0.0106354
0.00635919
0.00461166
0.00820345
0.00460017
0.000280985
0.0100297
0.00908168
0.00810667
0.010261
0.0021927
0.0096876
0.0100632
8.25409e-05
0.00558495
0.0061663
0.0270853
0.00600643
0.00847715
0.0130382
0.0106299
0.0100746
0.0048263
0.0111439
0.00273531
0.0101529
0.0117145
0.00728712
0.000574403
0.0103725
0.00899291
0.00188551
0.00027092
0.00653525
0.00901347
0.00815794
0.000421608
0.005315
0.00587481
0.00846617
-0.00289207
0.0104392
0.00906326
0.00990739
0.0104873
0.0015211
0.00313687
-0.00190087
-0.00140596
0.0060172
0.00690481
0.000291831
0.00650148
-0.0010674
0.00181304
0.00665184
0.00302564
0.00723292
0.00298324
0.00135268
0.00881041
0.00929403
0.00635599
0.00147772
0.0118135
0.00601902
0.0126704
0.0095517
0.0151198
-0.00176512
0.0115439
0.00984872
0.0122261
-0.00193985
0.00659375
0.00926486
-0.000460262
0.000946954
0.00943663
0.0125061
0.00556239
-0.00118848
0.000660961
0.00650442
3.2179e-05
0.011199
-0.000542399
-6.28372e-05
0.0120979
-0.00183665
-0.000942584
0.00290001
0.0104981
0.00955639
0.000915169
0.00122151
0.00718259
0.00253732
-0.000614917
0.0117956
0.0100421
0.0073544
0.000213215
-0.00174829
0.00097257
0.00029453
-0.000151641
0.000696646
0.00183631
</DataArray>
<DataArray type='Float64' Name='stress_x' format='ascii'>
10.2775
13.2297
65.5332
17.318
-72.7733
0.756936
5.02122
-14.4702
-22.1038
6.48563
48.4896
70.0887
35.2614
81.1561
4.02722
-16.6642
53.1279
3.52079
-43.3622
-64.8136
41.5257
1.13679
6.62934
-35.2851
3.0537
12.3146
5.40766
-23.6004
-42.7164
-23.6812
11.9874
-3.45602
-86.0354
-0.18247
6.20295
44.0065
0.345615
-125.122
1.94887
1.34252
23.573
-43.8955
4.23662
47.8805
-6.10808
6.11839
26.4599
-5.48156
18.6519
77.6901
29.3353
46.1938
19.8748
54.6636
-42.8342
53.5718
7.27189
-21.7359
-63.7818
3.40674
10.308
-64.0166
13.0705
-0.141704
10.2397
11.5715
14.8624
-3.53557
-3.76037
8.41348
12.8283
15.872
0.0926252
-87.2222
1.22377
-22.0841
-30.8071
-38.506
17.3956
-33.4722
1.64742
-52.4874
6.72259
17.7827
-18.0803
-3.99608
-73.2456
1.471
0.00719105
31.0139
60.4694
0.107023
-53.1792
8.64004
12.0095
-38.0642
-18.2931
10.673
-27.4636
-50.4098
96.9267
0.539095
18.95
1.83253
2.10457
14.9928
0.578056
-52.0431
21.5789
-22.3126
9.58434
9.07269
1.88409
-55.2214
3.05722
-17.6332
7.41726
-58.5826
2.6096
-61.7174
4.63134
-6.18492
32.3754
4.27174
12.1364
8.14209
-5.17229
11.1022
123.024
6.76938
-31.1362
2.30236
3.60349
5.24548
43.5759
59.9716
5.90272
7.97196
3.64434
9.01136
5.72151
27.9166
14.1761
13.8825
-1.52036
18.9835
25.0271
8.41765
36.7177
26.7831
3.65043
55.0267
37.8145
-22.3116
2.21156
40.6473
9.29527
10.3973
-1.7326
40.4334
7.33629
35.98
14.9611
1.63443
4.882
103.543
19.2745
23.4238
16.618
31.7354
1.55228
14.2131
8.02317
4.9991
34.6184
25.1541
6.5103
4.44007
6.12669
11.404
9.98364
10.5947
3.6071
10.8357
-63.7383
-0.358705
26.1414
-1.07273
-30.5388
7.11611
30.2142
0.337542
1.93146
-40.4772
1.49445
-13.2972
22.1746
14.1976
11.3689
3.05446
5.70419
18.141
-4.81701
31.6333
0.566123
-13.9937
-6.00696
119.619
2.86604
28.8841
4.55473
-12.3303
22.2009
19.5897
4.27295
-42.424
23.3542
1.40131
74.0229
8.13063
6.9421
45.2815
-0.565165
1.52739
-30.1899
1.30058
7.86328
6.26799
-28.7954
-10.3417
44.777
11.3214
7.37584
7.79408
-54.136
16.4775
4.18008
-9.62116
22.468
6.56347
-6.0569
18.5198
30.4827
3.25007
9.81665
6.94941
-8.49922
-41.362
1.54461
2.68346
2.99317
17.7837
22.6194
31.6788
25.5664
-80.6601
0.2631
0.689113
14.0427
-0.419902
-91.8902
181.438
3.35705
-8.40757
-7.83235
29.6315
4.35834
3.94449
6.71348
23.9219
3.7753
9.76449
4.8003
6.07041
82.1398
22.0544
4.64985
9.23346
20.4563
8.35601
5.34682
</DataArray>
<DataArray type='Float64' Name='stress_y' format='ascii'>
-2.41039
7.39814
6.92084
3.27261
-11.992
1.34601
1.67452
-3.51944
-2.08259
-0.150152
21.5667
21.0266
0.124253
2.9364
-0.288759
-3.63225
-1.21995
0.128355
-3.77138
-7.11519
-4.59644
2.39515
4.71846
-3.85619
-0.229524
-8.16895
3.46756
-7.01462
-2.30414
-2.50636
-5.46345
3.63076
0.246364
0.443714
-1.13636
6.39336
-0.209252
-8.89082
0.641384
-7.87859
-9.06063
-4.21372
8.08939
-5.6612
-5.20596
6.52966
-1.60311
-4.51566
7.86303
18.3841
2.03729
7.3219
-7.39284
-0.491848
-0.715412
1.93846
-0.289438
-3.07603
-2.23726
14.6893
-3.97265
-1.53639
-1.72893
2.47962
-4.01525
-4.21005
-7.21662
-3.84021
-4.35234
-8.13543
-1.47202
-6.75804
13.1275
0.787946
0.728656
-4.12763
-1.50811
-3.37813
-2.62986
-0.237498
-0.107311
-2.31329
-1.75939
-3.69654
-4.76942
0.496151
-0.252618
4.40502
6.56488
-7.28143
6.8961
0.639419
-1.41424
12.0926
-1.27838
-1.40847
-3.35673
-6.67354
-1.25767
-1.82024
3.24107
32.7174
-3.06222
23.9897
12.1209
-3.26701
24.4293
-0.436939
-8.26225
-4.68045
-1.31595
1.13422
42.7525
-1.00768
69.3489
-0.14966
-1.453
2.24661
-6.35383
-0.393932
-0.238989
8.07986
-7.90033
-0.409217
3.64092
0.135232
-4.69994
-2.35224
16.7432
2.2713
-4.47617
111.463
-0.17602
33.9777
15.9184
15.2541
-0.0546777
0.434973
-4.50611
-5.29286
1.63892
-9.43892
-6.80137
-5.02725
1.41118
-8.63577
-10.2071
-1.83233
1.65035
3.36657
-1.88994
4.50245
-1.79909
-6.69348
-0.137256
-4.6592
-4.25196
0.706745
-5.53698
-7.23039
-1.78638
-9.50224
-6.12607
43.7762
14.7032
19.2046
-8.76947
-8.92055
2.04014
-9.73443
0.676749
-0.670235
1.48599
1.65731
-8.31043
-9.50208
0.841725
-0.0342515
15.932
-1.558
0.752509
-7.87127
3.90859
-2.57511
-19.1215
0.339279
-9.25545
170.739
50.7844
3.07183
9.06425
-6.53064
-6.20935
-6.09475
6.71949
-7.09977
-4.85439
-9.1151
-0.813866
8.71589
-0.956682
-9.02607
-1.4451
-7.2863
0.206698
-2.45842
-5.19357
35.8858
0.0421505
-10.5529
15.9458
-3.75014
-4.73892
-8.43356
22.5433
-12.9978
-5.30304
1.26124
12.1983
1.36626
0.192074
10.2032
-3.77082
0.0524858
-9.63296
1.11254
-0.579058
6.04672
-3.1346
-6.40989
-5.23413
-1.18002
3.88393
5.66854
-12.9047
-8.07256
43.6223
3.37079
-5.25064
15.2398
44.1333
-3.16763
-7.44984
-5.31914
-5.76205
2.13532
1.31997
-12.4086
0.425898
-0.148274
14.186
-7.4177
9.06616
-4.33844
-5.33435
-14.2318
0.0656639
47.1566
-4.78405
0.0644015
-27.5671
21.5731
-0.276273
-4.8954
-6.73792
13.5797
-0.271218
0.609189
8.52479
-8.887
-0.064828
-6.27695
8.05277
2.95595
22.8455
-2.30588
-0.101362
-0.378544
-7.61844
-3.03562
0.581603
</DataArray>
<DataArray type='Float64' Name='tau_xy' format='ascii'>
20.4209
20.1953
-15.7078
-11.1726
22.4553
0.891035
4.33712
7.29418
19.5171
-0.126319
9.65939
14.8719
-8.16235
2.41191
-0.509348
11.9528
17.0446
5.52929
17.4445
15.8998
13.7247
5.51347
7.52492
8.68246
3.14325
22.8222
17.451
19.7592
11.5766
8.40763
1.39142
20.3558
6.92038
0.0611851
-0.0213228
23.0609
-0.0717812
16.3892
1.55581
20.8212
10.8127
19.9562
7.50634
5.86178
20.0999
21.9516
23.6807
22.3448
-9.7145
-23.7386
17.5661
15.7627
12.0967
2.61608
3.32092
-8.33542
1.6049
22.583
15.8474
20.6918
23.8231
4.99928
1.08648
1.30354
4.10083
7.90875
6.12818
24.2321
22.4889
21.1532
5.52369
11.6916
5.52601
7.43705
1.00051
20.1005
11.3059
19.8985
3.44479
1.52909
-0.218319
13.5694
2.85018
7.92693
22.9383
22.6256
5.53674
2.28761
3.03962
-2.9417
12.5302
-0.0771661
2.67222
19.3325
9.40755
13.7608
18.698
20.7169
-1.55212
0.451029
-12.3373
10.4204
0.0962663
6.64911
4.43322
13.3225
7.5306
4.51149
5.85442
17.3382
-0.967018
6.66343
9.4431
-2.80776
13.1728
-6.06648
5.49439
-2.74111
20.0535
4.61785
-0.468817
9.45199
15.0081
-0.0230577
17.2225
8.2971
16.4279
12.3693
-23.6788
-3.53355
18.4573
18.6266
0.384777
19.6411
-19.1853
22.6616
0.31011
19.0368
18.0307
19.7518
-5.37241
2.23456
19.1907
16.0523
18.4577
16.2081
16.3091
-1.41979
-12.4761
19.6961
20.5219
9.97463
23.8274
18.0868
0.669182
-0.557934
19.8085
13.7944
20.8719
16.5692
-3.58531
8.44105
16.9851
15.3385
14.9236
15.6002
16.3254
20.9768
-7.11329
16.5367
1.47871
-3.8968
20.4526
12.2292
8.86859
15.7759
8.84647
0.540356
19.2879
17.4648
15.5897
19.7327
4.21673
18.63
19.3522
0.158732
10.7403
11.8583
52.087
11.5508
16.3022
25.0734
20.4421
19.3742
9.28136
21.4305
5.26022
19.5249
22.5279
14.0137
1.10462
19.9472
17.2941
3.62599
0.521001
12.5678
17.3336
15.6883
0.810784
10.2212
11.2977
16.2811
-5.56168
20.0754
17.4293
19.0527
20.1678
2.92519
6.03244
-3.65552
-2.70378
11.5715
13.2785
0.561214
12.5028
-2.0527
3.48662
12.792
5.81854
13.9095
5.73701
2.60131
16.9431
17.8731
12.2231
2.84177
22.7183
11.575
24.3661
18.3687
29.0766
-3.39446
22.1997
18.9398
23.5118
-3.73049
12.6803
17.817
-0.885119
1.82107
18.1474
24.0503
10.6969
-2.28554
1.27108
12.5085
0.0618827
21.5365
-1.04307
-0.120841
23.2651
-3.53201
-1.81266
5.57694
20.1887
18.3777
1.75994
2.34905
13.8127
4.87946
-1.18253
22.6838
19.3118
14.1431
0.410028
-3.3621
1.87033
0.566404
-0.291617
1.3397
3.53136
</DataArray>
<DataArray type='Float64' Name='stress' format='ascii'>
37.2459
36.8162
68.0379
25.0684
77.9729
1.93589
8.7201
18.1786
39.8703
6.56564
45.2826
67.4116
37.9325
79.8378
4.2712
25.6704
61.3223
10.1823
51.4189
67.4439
50.0148
9.77247
14.311
36.7423
6.30227
43.3766
30.5963
40.1486
46.1912
26.8289
15.6476
35.7876
86.9886
0.567778
6.84237
57.3717
0.501013
124.209
3.19705
37.0813
34.6715
54.3541
14.7699
51.9494
35.2794
38.5453
49.2691
39.0328
23.3704
81.4618
41.6011
50.9375
32.1804
55.0978
42.8687
54.5737
7.92439
44.1024
68.4386
38.2333
43.1926
63.8522
14.141
3.40846
14.5787
19.6973
22.2011
42.1337
39.1659
39.342
16.6478
28.5471
16.2091
88.5607
2.03467
40.3197
35.8938
50.5163
19.7705
33.459
1.74508
56.4911
9.19168
24.1689
42.9175
39.4203
73.7458
5.54867
8.41239
35.5902
61.3035
0.608064
52.6901
35.1801
20.6572
44.3321
36.515
38.9518
26.991
49.531
97.7127
37.1327
20.6527
25.8366
13.594
28.5815
27.4433
52.4118
28.5487
36.2928
10.4407
14.3706
44.9254
54.9402
71.6043
20.4626
12.5885
59.9259
35.6398
62.0391
4.82418
20.5312
45.1895
4.49053
31.7207
16.4844
28.8819
24.7772
122.627
8.54787
43.2683
114.95
3.75428
46.4874
50.6244
66.7466
5.95452
33.8744
32.0206
36.4323
10.6129
33.8661
38.059
32.5702
32.0704
37.2424
42.2369
9.7819
41.9198
42.4536
35.8782
55.6681
56.6077
37.0765
2.56063
43.1767
36.3473
25.9251
36.4825
52.9443
10.425
44.051
34.907
50.5301
28.9202
99.1542
37.643
46.4465
19.9553
47.2357
2.89427
16.0481
36.1882
21.6359
42.3219
41.336
16.5043
4.55449
36.1915
32.6389
28.6679
37.759
8.21778
34.5424
65.8252
0.66413
36.8382
172.505
114.899
20.9399
38.9676
43.9431
36.1651
50.5463
17.1981
38.8666
26.5694
39.4681
40.7639
25.4524
6.52462
42.0474
30.2586
36.3825
1.02982
25.3242
30.5487
109.737
3.1729
39.5459
24.193
30.2503
26.7085
42.7686
36.6262
50.0633
43.7905
5.23997
69.5299
9.84651
8.29623
45.7625
23.2672
1.78897
34.3856
3.75806
10.1582
22.9969
29.1599
25.7326
48.6362
12.776
30.0341
31.734
53.3558
22.2243
57.3271
23.2014
49.31
34.4605
69.196
21.1246
51.8678
33.6496
42.9482
8.93109
23.8237
47.9988
2.06389
4.19162
33.9959
47.3122
27.0561
34.2852
28.6936
77.6533
0.26028
59.8597
17.0449
0.501313
91.0736
171.78
4.70434
12.1161
35.7312
40.9056
5.43534
5.48465
25.1572
30.582
4.324
41.7098
34.177
25.0544
73.436
24.01
5.70938
9.47933
25.1515
10.478
7.95164
</DataArray>
<DataArray type='Float64' Name='volume' format='ascii'>
0.00365833
0.00361192
0.00264157
0.00230931
0.00290836
0.00289144
0.00376962
0.00581785
0.00388936
0.0027723
0.00212044
0.00225006
0.00234358
0.0025265
0.00266231
0.00506159
0.00216473
0.00350845
0.00460005
0.00374689
0.00258663
0.0050542
0.00426215
0.00543912
0.00247216
0.00382546
0.00533566
0.00388674
0.00540773
0.00554848
0.00272991
0.00288493
0.00326757
0.00315618
0.00211798
0.00305139
0.00319429
0.00326741
0.00379156
0.00408279
0.00327654
0.00391065
0.00519944
0.00280261
0.00297948
0.00481937
0.00322947
0.00353099
0.00223168
0.00233293
0.00338769
0.00213941
0.00384226
0.00236086
0.005525
0.00279052
0.002416
0.00385656
0.00562684
0.00532127
0.00312483
0.00565079
0.00222783
0.00542463
0.00287472
0.00353426
0.00339996
0.00311157
0.0035317
0.00287805
0.00305983
0.00413519
0.00563685
0.00502853
0.00476274
0.00409459
0.0048101
0.00440685
0.00261824
0.00500911
0.00202998
0.00488943
0.00249453
0.00391462
0.00383461
0.00319003
0.00513663
0.00504159
0.005018
0.00224051
0.00221347
0.00225057
0.00534584
0.00477366
0.00368771
0.00472812
0.00424175
0.00365028
0.00511119
0.00511288
0.00158754
0.00487343
0.0025515
0.00581621
0.00517605
0.00374905
0.00554466
0.00498046
0.00233951
0.00482448
0.00254052
0.00302911
0.00510255
0.00485788
0.00506516
0.00524325
0.00361989
0.00578022
0.00373728
0.00516667
0.00192331
0.00388906
0.00281789
0.00252454
0.00283823
0.00297939
0.00376885
0.00378698
0.00193133
0.00197135
0.00459464
0.00477755
0.00241871
0.0050906
0.00199622
0.00167417
0.00250572
0.00422045
0.00412494
0.00390418
0.00217205
0.0020848
0.00371948
0.00373575
0.00455272
0.00350086
0.0030622
0.00310738
0.0025324
0.00234581
0.00423484
0.00203562
0.00262658
0.00297716
0.00242924
0.00233222
0.00389406
0.00374488
0.00402054
0.00262356
0.00194801
0.00249774
0.00367146
0.00481944
0.00361794
0.0020165
0.00329291
0.00294699
0.0022538
0.0026627
0.00274388
0.00245354
0.00409496
0.00250069
0.00259656
0.00284929
0.00353557
0.00251328
0.00521586
0.003776
0.00369389
0.00365648
0.00500963
0.00384268
0.00254744
0.00276749
0.00278482
0.00452248
0.00452248
0.00424937
0.00210945
0.00286546
0.00445504
0.00273094
0.00390497
0.00422678
0.00235313
0.00329096
0.00280768
0.00366428
0.00221894
0.00357982
0.00225623
0.00215854
0.00256242
0.00263115
0.00305115
0.00174932
0.00230417
0.00253443
0.00401927
0.00387455
0.0017483
0.00279181
0.00403988
0.00237363
0.00274973
0.00404426
0.00246941
0.00192296
0.00213178
0.00195188
0.00437561
0.00272063
0.00246952
0.00178343
0.0031532
0.00368638
0.00484598
0.00393539
0.00252839
0.00253607
0.00370605
0.00389082
0.002076
0.00176988
0.00457725
0.00391389
0.00261438
0.00377482
0.00367697
0.00183806
0.00267325
0.00296733
0.00240072
0.00395542
0.00355506
0.00206021
0.00171917
0.00182253
0.00392646
0.00228368
0.00207692
0.00152447
0.00156601
0.00220103
0.00228516
0.00388987
0.00256257
0.00263217
0.00256013
0.00144391
0.00180087
0.00380309
0.00333869
0.00182159
0.00242966
0.0020852
0.00309538
0.00177563
0.00164429
0.00219611
0.00314411
0.00336318
0.00153776
0.00164702
0.00189495
0.00181618
0.00149757
0.00200991
0.00237173
</DataArray>
</CellData>
<Cells>
<DataArray type='Int32' Name='connectivity' format='ascii'>
107 
45 
108 
45 
107 
109 
7 
54 
89 
9 
44 
59 
99 
57 
154 
58 
111 
153 
112 
114 
138 
122 
119 
143 
108 
52 
116 
46 
30 
98 
13 
135 
139 
12 
13 
139 
59 
44 
60 
89 
54 
90 
30 
29 
98 
84 
122 
143 
90 
113 
141 
114 
92 
138 
99 
100 
117 
57 
99 
117 
113 
74 
141 
126 
49 
138 
92 
126 
138 
47 
119 
122 
114 
112 
161 
129 
69 
131 
79 
88 
125 
116 
52 
117 
47 
110 
121 
110 
47 
122 
96 
93 
97 
108 
45 
132 
36 
99 
154 
111 
27 
153 
46 
98 
158 
91 
109 
113 
27 
3 
153 
1 
36 
154 
111 
58 
112 
83 
129 
131 
67 
115 
130 
100 
116 
117 
118 
49 
126 
61 
89 
141 
52 
108 
132 
85 
79 
125 
109 
107 
136 
105 
108 
116 
10 
9 
59 
8 
7 
89 
113 
109 
136 
109 
91 
135 
67 
70 
115 
89 
90 
141 
39 
47 
121 
61 
44 
89 
152 
124 
156 
102 
105 
116 
99 
50 
100 
125 
88 
142 
105 
106 
107 
37 
50 
99 
97 
93 
158 
49 
26 
111 
82 
87 
93 
77 
81 
82 
82 
96 
115 
105 
104 
106 
102 
104 
105 
131 
69 
159 
82 
81 
87 
70 
77 
115 
48 
24 
118 
36 
37 
99 
26 
27 
111 
100 
102 
116 
110 
101 
121 
100 
101 
102 
82 
93 
96 
47 
40 
119 
5 
11 
140 
101 
50 
121 
87 
152 
156 
77 
82 
115 
102 
103 
104 
105 
107 
108 
37 
38 
50 
25 
26 
49 
25 
49 
118 
60 
44 
61 
90 
54 
91 
28 
5 
140 
39 
40 
47 
123 
128 
142 
77 
80 
81 
100 
50 
101 
102 
101 
103 
83 
73 
129 
41 
51 
119 
40 
41 
119 
54 
6 
162 
56 
22 
120 
96 
97 
148 
23 
24 
48 
24 
25 
118 
70 
76 
77 
23 
48 
120 
50 
38 
121 
130 
115 
163 
110 
122 
133 
98 
97 
158 
81 
92 
114 
22 
23 
120 
41 
42 
51 
21 
22 
56 
51 
42 
123 
87 
81 
114 
42 
43 
123 
78 
73 
83 
38 
39 
121 
98 
29 
151 
123 
142 
155 
65 
63 
74 
31 
30 
46 
14 
15 
45 
81 
80 
92 
122 
84 
145 
77 
76 
80 
7 
6 
54 
11 
10 
55 
103 
101 
110 
20 
21 
128 
32 
31 
124 
56 
120 
125 
9 
8 
44 
135 
91 
139 
31 
46 
124 
75 
79 
85 
79 
78 
84 
75 
73 
78 
55 
10 
59 
60 
62 
71 
72 
68 
73 
70 
72 
76 
79 
84 
88 
67 
68 
70 
64 
66 
67 
95 
97 
98 
44 
8 
89 
45 
109 
157 
75 
78 
79 
90 
91 
113 
74 
113 
136 
16 
17 
52 
33 
32 
53 
60 
61 
62 
72 
73 
75 
80 
76 
86 
104 
103 
131 
74 
63 
141 
55 
94 
95 
62 
61 
63 
70 
68 
72 
21 
56 
128 
48 
137 
150 
139 
54 
162 
67 
66 
68 
66 
65 
69 
55 
59 
94 
64 
63 
65 
112 
58 
134 
95 
94 
97 
75 
85 
127 
45 
15 
132 
62 
63 
64 
64 
65 
66 
92 
80 
126 
53 
32 
124 
56 
125 
142 
76 
72 
127 
86 
76 
127 
73 
68 
129 
49 
111 
138 
72 
75 
127 
18 
19 
57 
35 
34 
58 
64 
67 
130 
2 
20 
149 
43 
2 
149 
80 
86 
126 
13 
14 
157 
104 
131 
159 
83 
131 
133 
117 
52 
147 
118 
126 
146 
131 
103 
133 
115 
96 
163 
66 
69 
129 
107 
106 
136 
137 
48 
146 
124 
46 
156 
68 
66 
129 
15 
16 
132 
71 
62 
130 
34 
33 
134 
16 
52 
132 
84 
78 
145 
4 
12 
162 
33 
53 
134 
62 
64 
130 
48 
118 
146 
103 
110 
133 
59 
60 
160 
69 
65 
144 
120 
48 
150 
57 
117 
147 
74 
136 
144 
111 
112 
138 
91 
54 
139 
55 
95 
140 
95 
98 
151 
135 
13 
157 
88 
84 
143 
58 
34 
134 
52 
17 
147 
11 
55 
140 
87 
114 
152 
126 
86 
146 
119 
51 
143 
133 
122 
145 
63 
61 
141 
93 
87 
156 
86 
127 
137 
127 
85 
137 
18 
57 
147 
96 
148 
163 
128 
56 
142 
51 
123 
155 
136 
106 
144 
85 
125 
150 
20 
128 
149 
94 
59 
160 
65 
74 
144 
78 
83 
145 
106 
104 
159 
123 
43 
149 
88 
143 
155 
17 
18 
147 
29 
28 
151 
134 
53 
161 
125 
120 
150 
69 
144 
159 
14 
45 
157 
60 
71 
160 
148 
71 
163 
57 
19 
154 
35 
58 
153 
128 