<VTKFile type='UnstructuredGrid' version='0.1' byte_order='BigEndian'>
<UnstructuredGrid>
<Piece NumberOfPoints='652' NumberOfCells='607'>
<Points>
<DataArray type='Float64' NumberOfComponents='3' Format='ascii'>
0 0 0
0 1 0
1.05287 0.862608 0
0.913875 -0.140125 0
0 0.3 0
0.221505 -0.0314606 0
0.0260662 0.294811 0
0.0543585 0.28759 0
0.0801554 0.275614 0
0.105918 0.260349 0
0.129123 0.240936 0
0.151591 0.218353 0
0.170811 0.193027 0
0.188076 0.164929 0
0.201953 0.134992 0
0.212893 0.103247 0
0.220282 0.0702876 0
0.224383 0.0365104 0
0.224699 0.002447 0
0 0.338889 0
0 0.377778 0
0 0.416667 0
0 0.455556 0
0 0.494444 0
0 0.533333 0
0 0.572222 0
0 0.611111 0
0 0.65 0
0 0.688889 0
0 0.727778 0
0 0.766667 0
0 0.805556 0
0 0.844444 0
0 0.883333 0
0 0.922222 0
0 0.961111 0
1.04264 0.80768 0
1.03396 0.753112 0
1.02603 0.69833 0
1.01843 0.643544 0
1.01138 0.588611 0
1.00444 0.533432 0
0.997864 0.478097 0
0.991204 0.422432 0
0.98466 0.366695 0
0.977966 0.310638 0
0.971132 0.254478 0
0.964078 0.198178 0
0.956825 0.141886 0
0.949298 0.0854678 0
0.941379 0.0289752 0
0.93307 -0.0273956 0
0.924275 -0.0839006 0
0.260306 -0.0374155 0
0.299308 -0.0433046 0
0.338052 -0.0489883 0
0.376838 -0.0545891 0
0.415369 -0.0601084 0
0.453924 -0.0656361 0
0.492309 -0.0711693 0
0.53071 -0.076744 0
0.568987 -0.0824132 0
0.607342 -0.0881387 0
0.645591 -0.0939757 0
0.683936 -0.0999011 0
0.72217 -0.105957 0
0.760523 -0.112128 0
0.798739 -0.1185 0
0.837146 -0.125134 0
0.875317 -0.132042 0
0.0644796 0.993953 0
0.124909 0.989891 0
0.186358 0.984499 0
0.246138 0.979027 0
0.306349 0.972807 0
0.365562 0.966169 0
0.42467 0.958898 0
0.483032 0.951463 0
0.541328 0.943501 0
0.598986 0.935525 0
0.656758 0.927097 0
0.713671 0.91858 0
0.77075 0.909933 0
0.827253 0.901138 0
0.883945 0.892257 0
0.940213 0.883088 0
0.996808 0.873674 0
0.218976 0.22162 0
0.0806513 0.57759 0
0.479596 -0.00133671 0
0.500734 0.861303 0
0.890329 0.385812 0
0.86129 0.188258 0
0.305501 0.846319 0
0.754609 0.810696 0
0.0794116 0.729653 0
0.65293 -0.0215332 0
0.11075 0.339425 0
0.287227 0.0935585 0
0.894068 0.597791 0
0.0831009 0.848607 0
0.785655 -0.0430447 0
0.273539 0.164048 0
0.274134 0.219075 0
0.24576 0.279047 0
0.325698 0.292229 0
0.306808 0.373227 0
0.389235 0.381298 0
0.33962 0.441522 0
0.42176 0.427387 0
0.456321 0.349491 0
0.494045 0.416578 0
0.391983 0.476365 0
0.536228 0.308668 0
0.334626 0.224694 0
0.58753 0.422276 0
0.548489 0.509812 0
0.23189 0.437255 0
0.62645 0.536059 0
0.618902 0.339531 0
0.595407 0.221599 0
0.5884 0.595335 0
0.689878 0.590627 0
0.676984 0.260577 0
0.633768 0.147346 0
0.522778 0.173725 0
0.514154 0.602249 0
0.614591 0.66756 0
0.746595 0.520049 0
0.703432 0.344433 0
0.580186 0.101166 0
0.76348 0.66119 0
0.175021 0.284995 0
0.171558 0.347942 0
0.103141 0.394537 0
0.717156 0.164187 0
0.479795 0.103478 0
0.342975 0.12176 0
0.364768 0.059854 0
0.451678 0.165511 0
0.417632 0.0950261 0
0.41503 0.0137426 0
0.16381 0.887834 0
0.2116 0.800859 0
0.350125 0.749106 0
0.277573 0.720769 0
0.38789 0.662549 0
0.315556 0.64259 0
0.229736 0.655035 0
0.239467 0.560733 0
0.158218 0.580588 0
0.148809 0.646613 0
0.113886 0.485708 0
0.437449 0.762043 0
0.831357 0.0345215 0
0.751056 0.049386 0
0.155101 0.415234 0
0.68363 0.0720437 0
0.478857 0.249054 0
0.155092 0.726337 0
0.127652 0.796488 0
0.880087 0.274223 0
0.611133 0.835877 0
0.923511 0.512091 0
0.403656 0.860079 0
0.535748 0.759832 0
0.868226 0.789793 0
0.572752 -0.00775248 0
0.812521 0.569632 0
0.772991 0.237215 0
0.692233 0.445207 0
0.91952 0.718139 0
0.46392 0.498008 0
0.408002 0.29874 0
0.425972 0.579052 0
0.0772813 0.664284 0
0.460043 0.680676 0
0.72879 -0.0167478 0
0.0676772 0.433133 0
0.18437 0.510186 0
0.778191 0.413667 0
0.793422 0.115039 0
0.0517023 0.381011 0
0.288315 0.0213988 0
0.234217 0.351936 0
0.859493 0.677494 0
0.685898 0.747252 0
0.289235 0.486373 0
0.52885 0.67665 0
0.806301 0.331315 0
0.072612 0.786903 0
0.391629 0.149513 0
0.947224 0.79084 0
0.834285 0.470439 0
0.339769 0.0123849 0
0.620159 0.0341438 0
0.855428 -0.0448478 0
0.0882728 0.922014 0
0.809998 0.749443 0
0.530304 0.0480902 0
0.0459228 0.51535 0
0.449379 0.0530666 0
0.338489 0.553914 0
0.332577 0.16873 0
0.687283 0.00621214 0
0.0583055 0.332895 0
0.409209 0.216688 0
0.123422 0.868288 0
0.0859945 0.885201 0
0.126917 0.904615 0
0.808569 -0.00428529 0
0.843476 -0.00516878 0
0.820381 -0.0438409 0
0.556306 0.848638 0
0.573325 0.797826 0
0.518349 0.810587 0
0.447255 0.00620768 0
0.432144 0.0333921 0
0.464403 0.0258544 0
0.183114 0.763684 0
0.141596 0.761367 0
0.169765 0.798807 0
0.189201 0.650992 0
0.151944 0.686423 0
0.192754 0.690862 0
0.140141 0.272754 0
0.16372 0.251335 0
0.448643 0.0992633 0
0.464551 0.0782556 0
0.433408 0.0740385 0
0.29679 0.681703 0
0.272721 0.648924 0
0.253528 0.687898 0
0.501321 0.138583 0
0.465678 0.134463 0
0.487146 0.16964 0
0.905393 0.137042 0
0.912698 0.193151 0
0.246352 0.220339 0
0.232441 0.250197 0
0.259839 0.248995 0
0.662235 0.877229 0
0.605068 0.885687 0
0.934211 0.348179 0
0.940799 0.404014 0
0.443333 0.273868 0
0.443987 0.232894 0
0.408716 0.257657 0
0.6754 0.155827 0
0.700486 0.118096 0
0.658706 0.109689 0
0.95744 0.467198 0
0.964044 0.522718 0
0.79079 0.855928 0
0.734158 0.864708 0
0.466664 -0.033493 0
0.505097 -0.0390261 0
0.575473 0.71376 0
0.571864 0.672097 0
0.532338 0.718211 0
0.551634 -0.042255 0
0.590029 -0.0479365 0
0.18517 0.220035 0
0.203662 0.193031 0
0.0852455 0.413789 0
0.0767479 0.387648 0
0.0592768 0.406911 0
0.475216 0.383031 0
0.515352 0.362584 0
0.496209 0.32908 0
0.0974912 0.531675 0
0.0799343 0.50077 0
0.0631057 0.546475 0
0.630049 -0.0548272 0
0.668455 -0.0607035 0
0.648004 0.300035 0
0.661133 0.342016 0
0.690299 0.302516 0
0.269476 0.405279 0
0.270254 0.362516 0
0.233306 0.394476 0
0.315102 0.107602 0
0.353723 0.0907931 0
0.325883 0.0766783 0
0.347842 0.377247 0
0.32327 0.407306 0
0.36452 0.411372 0
0.697153 0.212362 0
0.724937 0.248936 0
0.745144 0.200703 0
0.422725 0.365366 0
0.432151 0.324117 0
0.398757 0.33997 0
0.0229637 0.52444 0
0.0226727 0.485624 0
0.198894 0.57081 0
0.211738 0.535393 0
0.171429 0.545323 0
0.105697 0.822464 0
0.100187 0.791743 0
0.0779723 0.817706 0
0.791135 0.0420304 0
0.772279 0.0821848 0
0.812442 0.0747981 0
0.0398794 0.748412 0
0.0362244 0.777031 0
0.076102 0.758215 0
0.421599 0.157518 0
0.400438 0.183059 0
0.430346 0.191073 0
0.779582 0.544863 0
0.823456 0.520054 0
0.790519 0.49522 0
0.893962 0.753982 0
0.907921 0.790388 0
0.933307 0.754444 0
0.0274253 0.315798 0
0.0559799 0.309859 0
0.487349 0.641473 0
0.494581 0.678632 0
0.521569 0.639425 0
0.264599 0.523602 0
0.288937 0.557467 0
0.313752 0.520117 0
0.81159 0.66937 0
0.786634 0.705342 0
0.834855 0.713484 0
0.367262 0.135625 0
0.337676 0.145242 0
0.361972 0.159132 0
0.140631 0.343559 0
0.173311 0.316277 0
0.109118 0.299463 0
0.141329 0.308336 0
0.651841 0.0531225 0
0.600144 0.0676396 0
0.606968 0.124262 0
0.629474 0.0887013 0
0.755258 0.139656 0
0.717292 0.0607513 0
0.73639 0.100206 0
0.827424 0.151619 0
0.890411 0.0598513 0
0.859022 0.10585 0
0.650145 0.707416 0
0.72487 0.704267 0
0.726645 0.625929 0
0.652418 0.629106 0
0.688379 0.666757 0
0.846246 -0.0849362 0
0.773032 -0.0775702 0
0.809705 -0.0811621 0
0.596401 0.0131967 0
0.636513 0.00630583 0
0.613314 -0.0207914 0
0.0443671 0.92244 0
0.0416237 0.846831 0
0.0426746 0.884769 0
0.83918 0.769629 0
0.889561 0.69785 0
0.864227 0.733762 0
0.555217 0.0746256 0
0.551473 0.0201633 0
0.575868 0.0439254 0
0.720262 0.778972 0
0.648749 0.79162 0
0.691075 0.828214 0
0.817136 0.212762 0
0.786277 0.176198 0
0.153558 0.613554 0
0.234717 0.607889 0
0.194141 0.611029 0
0.504971 0.075774 0
0.551434 0.137419 0
0.528304 0.10661 0
0.943851 0.837068 0
0.84778 0.845557 0
0.895708 0.841356 0
0.504905 0.0233677 0
0.528329 -0.00941756 0
0.0404443 0.594708 0
0.0316579 0.559615 0
0.395811 -0.0204428 0
0.431327 -0.0269662 0
0.389793 0.0367914 0
0.391166 0.0774121 0
0.4117 0.0554054 0
0.19316 0.426206 0
0.202576 0.349821 0
0.163429 0.381448 0
0.198427 0.388279 0
0.204601 0.93338 0
0.276046 0.912917 0
0.258528 0.823704 0
0.188096 0.844348 0
0.231312 0.878916 0
0.240106 0.315358 0
0.316403 0.332662 0
0.285524 0.285616 0
0.278317 0.324175 0
0.113127 0.655622 0
0.078362 0.696945 0
0.117299 0.728183 0
0.115131 0.691964 0
0.0790016 0.620913 0
0.119368 0.579288 0
0.11628 0.617517 0
0.448892 0.721344 0
0.486776 0.760951 0
0.490492 0.719927 0
0.424023 0.6716 0
0.369247 0.705857 0
0.393899 0.755591 0
0.408874 0.71376 0
0.327193 0.598267 0
0.280933 0.603364 0
0.407151 0.620815 0
0.470046 0.590667 0
0.447062 0.631285 0
0.330189 0.258403 0
0.304266 0.221855 0
0.295134 0.253751 0
0.719435 0.48265 0
0.65949 0.490621 0
0.658165 0.563341 0
0.71834 0.55533 0
0.688791 0.523038 0
0.352198 0.0361077 0
0.313976 0.0168719 0
0.287571 0.0574851 0
0.319998 0.0467426 0
0.757188 -0.0298588 0
0.706298 -0.0583006 0
0.739717 -0.0678705 0
0.328072 0.797763 0
0.354748 0.853229 0
0.420693 0.811078 0
0.374164 0.804639 0
0.366694 0.295492 0
0.357549 0.336438 0
0.260382 0.461762 0
0.314441 0.463911 0
0.292046 0.434741 0
0.365461 0.515185 0
0.365691 0.458911 0
0.339927 0.489682 0
0.614599 0.184449 0
0.636182 0.241134 0
0.655876 0.198461 0
0.697947 0.394814 0
0.603318 0.380886 0
0.639834 0.433786 0
0.650552 0.387911 0
0.452397 0.860683 0
0.469406 0.811037 0
0.256277 0.0288743 0
0.250063 0.0982274 0
0.254082 0.0637337 0
0.479126 0.457281 0
0.506178 0.503919 0
0.568165 0.466026 0
0.540723 0.419455 0
0.523541 0.461754 0
0.754843 0.337887 0
0.789745 0.284269 0
0.739963 0.293417 0
0.878926 0.491284 0
0.853359 0.583723 0
0.908844 0.554932 0
0.866035 0.537494 0
0.611718 0.752801 0
0.565857 0.265094 0
0.577537 0.324145 0
0.606908 0.282632 0
0.843216 0.302772 0
0.848341 0.358565 0
0.929046 0.292313 0
0.8887 0.3254 0
0.491876 0.906332 0
0.548465 0.896238 0
0.559245 0.371819 0
0.20833 0.473736 0
0.236402 0.498875 0
0.862375 0.428125 0
0.909819 0.447588 0
0.607546 0.565658 0
0.587465 0.522933 0
0.531504 0.55603 0
0.551373 0.598765 0
0.569403 0.560939 0
0.293646 -0.0109379 0
0.259291 -0.00431049 0
0.108709 0.760069 0
0.613704 0.478416 0
0.384635 0.913155 0
0.330193 0.913335 0
0.302972 0.166384 0
0.280224 0.128787 0
0.309126 0.136957 0
0.782482 0.780103 0
0.814855 0.812849 0
0.371777 0.220698 0
0.369462 0.258093 0
0.313875 0.734968 0
0.244933 0.760916 0
0.286161 0.779545 0
0.559076 0.197697 0
0.500809 0.211342 0
0.507561 0.278876 0
0.533402 0.238277 0
0.876816 0.637633 0
0.969014 0.68062 0
0.956234 0.620718 0
0.922755 0.65921 0
0.106779 0.366698 0
0.0837643 0.335899 0
0.0547295 0.356582 0
0.0811058 0.362229 0
0.792312 0.372486 0
0.735244 0.429419 0
0.74507 0.383663 0
0.218509 0.726078 0
0.405487 0.404315 0
0.406906 0.451847 0
0.385727 0.431706 0
0.210012 0.282 0
0.198206 0.250935 0
0.583079 0.160974 0
0.33356 0.196684 0
0.367049 0.189882 0
0.870761 0.231247 0
0.920962 0.242746 0
0.990603 0.771856 0
0.979539 0.726319 0
0.457838 0.421984 0
0.427872 0.487193 0
0.442973 0.454655 0
0.0254961 0.379607 0
0.0338146 0.444739 0
0.0299137 0.412293 0
0.273769 0.191531 0
0.230915 0.164372 0
0.238903 0.192274 0
0.438209 0.909989 0
0.601514 0.631417 0
0.62982 0.597466 0
0.670055 -0.00765717 0
0.707992 -0.00525378 0
0.688257 -0.0329552 0
0.440345 0.393753 0
0.351732 0.652579 0
0.332805 0.693952 0
0.806271 0.442063 0
0.762807 0.462359 0
0.95996 0.571708 0
0.40453 0.122252 0
0.435187 0.128375 0
0.830248 0.257763 0
0.382158 0.566523 0
0.445125 0.538534 0
0.405163 0.52699 0
0.379273 0.106497 0
0.148892 0.497982 0
0.134428 0.538878 0
0.206827 0.316064 0
0.0387154 0.676851 0
0.0392656 0.712654 0
0.788087 0.615425 0
0.753059 0.585418 0
0.827298 0.400311 0
0.488174 0.547404 0
0.0903952 0.459409 0
0.134669 0.450499 0
0.128691 0.404744 0
0.110103 0.432439 0
0.465634 0.201257 0
0.739933 0.0163061 0
0.774267 0.00609511 0
0.832335 0.626539 0
0.469866 0.301541 0
0.367007 0.6097 0
0.107029 0.955433 0
0.155432 0.945036 0
0.894316 -0.0362334 0
0.892519 0.0118855 0
0.146524 0.833771 0
0.993237 0.822687 0
0.171499 0.462451 0
0.241348 0.131675 0
0.484769 0.050814 0
0.0568053 0.472955 0
0.0395912 0.635773 0
0.0832081 0.306253 0
0.753377 0.742226 0
0.0388029 0.811979 0
0.561441 0.635538 0
0.135317 0.374492 0
0.685456 0.0391187 0
0.661023 0.0227363 0
0.0276359 0.348483 0
0.0526862 0.959063 0
0.358136 -0.0210948 0
0.326002 -0.0160816 0
0.885265 -0.084233 0
0.303791 0.194087 0
0.71273 0.0277486 0
0.37403 0.0078157 0
0.1115 0.886388 0
0.824247 -0.0177496 0
0.549119 0.8191 0
0.447997 0.0218258 0
0.164645 0.774726 0
0.177952 0.676191 0
0.144714 0.254764 0
0.448946 0.0838531 0
0.274295 0.672929 0
0.484783 0.147569 0
0.92499 0.15732 0
0.246377 0.239903 0
0.641092 0.896746 0
0.953191 0.372895 0
0.432058 0.254833 0
0.678229 0.127875 0
0.973026 0.489281 0
0.765075 0.87686 0
0.488061 -0.0478898 0
0.559775 0.701436 0
0.570265 -0.0575139 0
0.186619 0.201723 0
0.0742488 0.403027 0
0.495632 0.358267 0
0.0802541 0.52637 0
0.648076 -0.069817 0
0.666464 0.314858 0
0.257798 0.387604 0
0.33165 0.0916916 0
0.34527 0.398744 0
0.722411 0.220674 0
0.417904 0.343197 0
0.0152617 0.501538 0
0.194044 0.550665 0
0.0944635 0.810756 0
0.791993 0.0663484 0
0.0506866 0.76128 0
0.417528 0.177225 0
0.797791 0.52004 0
0.911587 0.766305 0
0.0374132 0.307063 0
0.501034 0.653248 0
0.289092 0.533823 0
0.810918 0.696076 0
0.355737 0.146654 0
</DataArray>
</Points>
<CellData Scalars='scalars'>
<DataArray type='Float64' Name='Parts' format='ascii'>
1
1
1
1
1
1
1
1
1
1
1
1
1
1
1
1
1
1
1
1
1
1
1
1
1
1
1
1
1
1
1
1
1
1
1
1
1
1
1
1
1
1
1
1
1
1
1
1
1
1
1
1
1
1
1
1
1
1
1
1
1
1
1
1
1
1
1
1
1
1
1
1
1
1
1
1
1
1
1
1
1
1
1
1
1
1
1
1
1
1
1
1
1
1
1
1
1
1
1
1
1
1
1
1
1
1
1
1
1
1
1
1
1
1
1
1
1
1
1
1
1
1
1
1
1
1
1
1
1
1
1
1
1
1
1
1
1
1
1
1
1
1
1
1
1
1
1
1
1
1
1
1
1
1
1
1
1
1
1
1
1
1
1
1
1
1
1
1
1
1
1
1
1
1
1
1
1
1
1
1
1
1
1
1
1
1
1
1
1
1
1
1
1
1
1
1
1
1
1
1
1
1
1
1
1
1
1
1
1
1
1
1
1
1
1
1
1
1
1
1
1
1
1
1
1
1
1
1
1
1
1
1
1
1
1
1
1
1
1
1
1
1
1
1
1
1
1
1
1
1
1
1
1
1
1
1
1
1
1
1
1
1
1
1
1
1
1
1
1
1
1
1
1
1
1
1
1
1
1
1
1
1
1
1
1
1
1
1
1
1
1
1
1
1
1
1
1
1
1
1
1
1
1
1
1
1
1
1
1
1
1
1
1
1
1
1
1
1
1
1
1
1
1
1
1
1
1
1
1
1
1
1
1
1
1
1
1
1
1
1
1
1
1
1
1
1
1
1
1
1
1
1
1
1
1
1
1
1
1
1
1
1
1
1
1
1
1
1
1
1
1
1
1
1
1
1
1
1
1
1
1
1
1
1
1
1
1
1
1
1
1
1
1
1
1
1
1
1
1
1
1
1
1
1
1
1
1
1
1
1
1
1
1
1
1
1
1
1
1
1
1
1
1
1
1
1
1
1
1
1
1
1
1
1
1
1
1
1
1
1
1
1
1
1
1
1
1
1
1
1
1
1
1
1
1
1
1
1
1
1
1
1
1
1
1
1
1
1
1
1
1
1
1
1
1
1
1
1
1
1
1
1
1
1
1
1
1
1
1
1
1
1
1
1
1
1
1
1
1
1
1
1
1
1
1
1
1
1
1
1
1
1
1
1
1
1
1
1
1
1
1
1
1
1
1
1
1
1
1
1
1
1
1
1
1
1
1
1
1
1
1
1
1
1
1
1
1
1
1
1
1
1
1
1
1
1
1
1
1
1
1
1
1
1
1
1
1
1
1
1
1
1
1
1
1
1
1
1
1
1
1
1
1
1
1
1
1
1
1
1
1
1
1
1
1
1
1
1
1
1
1
1
1
1
1
1
1
</DataArray>
<DataArray type='Float64' Name='e_x' format='ascii'>
0.0811975
0.0678219
0.0671217
0.0817883
0.00905366
0.010355
0.0111829
0.0101512
0.00708568
0.0061022
0.00474002
0.00552651
0.00307137
0.00362056
0.00330374
0.00355518
-0.00876927
-0.0111017
-0.0067849
-0.00501414
0.00869669
0.00647525
0.0122798
0.0129241
0.0120331
0.0112159
0.0116784
0.0134428
-0.0693931
-0.0709084
-0.0596502
-0.0551795
-0.00431688
-0.00756891
-0.00682603
-0.00420705
0.0123157
0.0118286
0.0113167
0.0118065
-0.0189232
-0.0184692
-0.0245404
-0.0246522
0.0043373
0.00584279
0.00497521
0.00400777
0.00436481
-0.00394569
-0.00458283
0.00522594
0.013273
0.0132348
0.0150904
0.0153786
-0.0136842
-0.00798094
-0.0107592
-0.0158218
0.0119929
0.0122919
0.0122601
0.0128957
0.0112215
0.019564
0.0178895
0.00853157
0.0103848
0.00833307
0.0101093
0.011099
0.0116252
0.0124086
0.0142389
0.0131278
0.0494976
0.0426574
0.0495648
0.056007
-0.0659988
-0.0710517
-0.0551201
-0.0507703
0.045673
0.0470845
0.0402045
0.0405474
-0.0114173
-0.0121919
-0.0199841
-0.0194021
0.00443164
-0.00469092
-0.00309992
0.00310573
-0.0202368
-0.014837
-0.0156878
-0.0222801
-0.0228537
-0.0163511
-0.0151266
-0.0232747
-0.00360691
0.00467001
0.00555991
-0.00479072
-0.00221394
-0.00840349
-0.00978676
-0.00457796
0.0362037
0.0424727
0.0380014
0.0348077
0.001091
0.00329795
0.00146408
-0.000530082
0.0103357
0.00753001
0.00569216
0.00913082
0.0099803
0.00987645
0.0134881
0.013857
-0.0317058
-0.0424635
-0.0405342
-0.031497
0.0298478
0.0305337
0.0351598
0.0349137
0.0341485
0.0268403
0.0283638
0.0344742
0.0203307
0.0131535
0.0180163
0.0223021
0.00940355
0.00798016
0.010183
0.0114349
0.00672037
0.00760202
0.010066
0.0091336
-0.0354805
-0.0270729
-0.0294481
-0.0385949
0.00644843
0.00343944
0.000802629
0.00198681
0.0137973
0.0108709
0.00857843
0.0107928
0.00663432
0.00501415
0.0055798
0.00783721
-7.14068e-05
0.000792825
-0.000438894
-0.000664928
-0.0169076
-0.0137082
-0.0207724
-0.0232909
0.0122594
0.0107512
0.0130295
0.0149869
0.00270923
0.00297377
0.00213146
0.00228135
-0.0381295
-0.0437747
-0.0382101
-0.0317616
0.0160188
0.0154255
0.0122697
0.0128447
0.0230407
0.0156301
0.0230737
0.0297097
0.00152145
0.00130029
0.000364384
0.000795606
-0.00104444
0.00115049
0.00319129
-0.000957104
0.00195206
0.00053516
-2.03086e-06
0.000498542
-0.0267175
-0.0352739
-0.0367851
-0.0285977
0.00380032
0.00533882
0.00810481
0.00597101
-0.0631267
-0.0513541
-0.053981
-0.07048
0.0208946
0.0220171
0.0184739
0.0148314
-0.011837
-0.0113733
-0.0157763
-0.0168321
0.0299089
0.0280418
0.0316017
0.0341116
-0.0391582
-0.0410079
-0.0316653
-0.0291491
0.0152923
0.0170331
0.0193689
0.0172556
-0.00168505
-0.0025717
-0.00251533
-0.00243228
0.0815866
0.0720859
0.0825281
0.0947242
0.00415106
0.00425133
0.00593572
0.0049543
-0.0248647
-0.0338002
-0.0240654
-0.016423
0.0221211
0.0258979
0.0249362
0.0202257
0.0421102
0.0444458
0.0561375
0.0483617
0.0119066
0.0126038
0.0148522
0.0132828
0.0229311
0.0250993
0.0283791
0.0259114
0.00278995
0.00303733
0.00360116
0.00323444
-0.00308399
-0.00276998
-0.00436244
-0.00323583
0.0138682
0.0160927
0.0186421
0.0167407
0.0677897
0.0705851
0.0523824
0.0558602
0.0337757
0.0320028
0.02556
0.0199484
-0.0474002
-0.0564007
-0.0500207
-0.0433744
-0.00298921
-0.000681027
-0.00322453
-0.00618301
0.0113049
0.00991429
0.0101278
0.0129604
0.0212128
0.0189986
0.0223733
0.0249639
-0.0201939
-0.0218555
-0.0140632
-0.0117537
0.00187122
0.00206184
0.00309461
0.00374275
-0.00105465
-0.00230267
-0.00142904
-0.000489906
0.0169658
0.0196873
0.019181
0.0166359
0.00430748
0.00377468
0.00318358
0.00346519
0.0136236
0.00848107
0.00557545
0.00987836
0.0174923
0.018998
0.0163945
0.0139372
0.0114512
0.0199457
0.0241122
0.0124212
0.0591757
0.0590144
0.0529931
0.051959
-0.0210904
-0.0142522
-0.0157806
-0.0246591
-0.00131063
-0.000350336
-0.00225669
-0.00365155
0.00226525
0.00321716
0.00304147
0.00206925
0.000606922
0.00486121
0.00732798
0.00257207
0.0560088
0.0491847
0.03933
0.0489851
0.020337
0.0236406
0.0214382
0.0187016
0.006123
0.0071969
0.00552681
0.00396812
-0.00299882
-0.00171801
-0.00174564
-0.00402068
0.0226583
0.0198743
0.0219866
0.0258511
-5.28246e-05
0.00293148
-0.00421582
-0.00616796
-0.0911984
-0.0832799
-0.0751418
-0.0865401
0.00296632
0.00395557
0.00446983
0.00226053
-0.0454532
-0.0548331
-0.0588179
-0.0477694
-0.00352608
-0.0108135
-0.0064856
-0.00274729
0.0290376
0.0358106
0.0419172
0.0333664
0.0178998
0.0111474
0.00465809
0.0103138
0.0132453
0.0141532
0.0130399
0.0121765
0.0295726
0.0333254
0.0432463
0.0394303
0.000528987
-0.00774271
-0.00583564
0.00284439
0.0939317
0.104026
0.129831
0.109891
-0.0129265
-0.0141535
-0.0102995
-0.00816876
-0.0392053
-0.0349541
-0.0448464
-0.0464919
-0.00478349
-0.0048928
-0.00990627
-0.00859337
0.0639156
0.0563288
0.0640154
0.0720048
0.0102105
0.00885476
0.00949021
0.0103604
0.0901065
0.0940195
0.115076
0.148003
-0.0980309
-0.0863344
-0.127639
-0.104214
0.00235418
0.00387513
0.00545009
0.0048848
0.00589282
0.0099476
0.00239276
0.00255274
0.0311934
0.0301842
0.0263766
0.0262445
0.00702972
0.00783336
0.00864466
0.00776978
0.00766892
0.0102086
0.00974455
0.0071344
-0.070707
-0.0596408
-0.0769209
0.00541326
0.00273867
0.00305632
-0.0323253
-0.0281265
-0.0264435
0.0117507
0.0114822
0.0121124
-0.0388203
-0.031131
-0.0387062
-0.0117854
-0.010197
-0.0182544
0.0497599
0.0702155
0.0653733
0.0153868
0.0152194
0.0140257
-0.0172915
-0.0107784
-0.0114125
0.0171711
0.0164598
0.0182882
0.00406785
0.00407765
0.00333667
0.0383187
0.0406764
0.0434902
-0.0336449
-0.0291041
-0.0290041
0.00157327
0.00201158
0.00164798
0.0267263
0.0235548
0.0258149
0.00916957
0.00759844
0.00800621
-0.000555837
4.91759e-05
-0.000124471
-0.0232843
-0.0197704
-0.0193839
0.0130524
0.0119438
0.0117251
-0.0177511
-0.0124908
-0.0136456
0.0144129
0.01404
0.012698
0.0169673
0.0294431
0.0353445
0.0568834
0.0649245
0.0715841
0.0203126
0.01799
0.0182514
0.0157654
0.024337
0.022537
0.0144521
0.0145801
0.0124285
0.00927328
0.010079
0.00833011
0.0393347
0.039609
0.0449709
0.0124157
0.0152616
0.0124634
0.0292115
0.033115
0.0287479
0.00689979
0.00776534
0.00618522
0.0267441
0.0246852
0.0274908
0.0367668
0.0265827
0.027634
0.0101865
0.0118698
0.0167389
-0.0487065
-0.0441466
-0.0402047
0.00338219
0.0045338
0.0038191
-0.027443
-0.0290406
-0.0325292
0.0213817
0.0219551
0.0238137
0.000722744
5.12735e-05
0.00105841
-0.00331497
-0.0063728
-0.00382708
0.149523
0.175874
0.135553
-0.00655939
-0.0108231
-0.0104098
0.0171151
0.0119996
0.011106
-0.0046906
-0.0058473
-0.00730075
0.0211815
0.0198512
0.0221992
</DataArray>
<DataArray type='Float64' Name='e_y' format='ascii'>
-0.0166945
-0.0145897
-0.0134092
-0.0103117
-0.00456062
-0.00462021
-0.00563269
-0.00573424
-0.00421149
-0.00488191
-0.00475606
-0.00370227
-0.00688284
-0.00649663
-0.00823388
-0.0114486
-0.000490513
0.000990686
-0.000522384
-0.00187696
-0.00320768
-0.00279761
-0.00437354
-0.0037547
-0.00398904
-0.00405601
-0.00386603
-0.00406913
0.00437751
0.00806791
0.00757672
0.000948691
0.00122886
0.0014816
0.00171166
0.00187085
-0.00514321
-0.00546797
-0.00459326
-0.00445491
0.00505917
0.00449006
0.00659842
0.00732088
-0.00602357
-0.00592387
-0.00652917
-0.00699571
-0.000561357
0.00107398
0.000199511
-0.00243518
-0.00676456
-0.0061501
-0.00757075
-0.00853584
0.00453081
0.00210072
0.00326055
0.0045804
-0.00408947
-0.00464353
-0.00413898
-0.00393961
0.00166208
0.00284944
0.000937786
0.00166768
-0.00320522
-0.00258717
-0.00343279
-0.00374773
-0.00448542
-0.00479433
-0.00616035
-0.00544342
-0.0124264
-0.0133413
-0.0165582
-0.014743
0.0188576
0.0213359
0.0155731
0.0134057
-0.0175671
-0.0184351
-0.0180684
-0.0185172
0.0025117
0.00150132
0.00258664
0.0027145
0.000870151
0.00170235
0.00123113
0.000992628
0.00388599
0.00141173
0.00176213
0.00434299
0.00450405
0.00183072
0.0014995
0.00473078
-0.00174799
-0.0050617
-0.00390163
-0.00070412
-0.00407358
-0.00133513
-0.000867292
-0.00320353
-0.0136002
-0.0160517
-0.0172625
-0.0154403
-0.00457478
-0.00599053
-0.00531982
-0.00415302
-0.00322136
-0.0019268
-0.000469214
-0.00140473
-0.00318705
-0.00299605
-0.00410607
-0.00418458
0.00782852
0.0117283
0.0113657
0.0079616
-0.0169884
-0.0173159
-0.0180778
-0.0179649
-0.0138788
-0.0124345
-0.0145183
-0.0161679
-0.0110191
-0.00898623
-0.0116716
-0.0127885
-0.00744295
-0.00616408
-0.00675173
-0.00804158
-0.00760479
-0.0078529
-0.00908879
-0.00900268
0.00994535
0.00655959
0.00729674
0.010876
0.0011968
0.00110953
0.00205704
0.00492276
-0.011513
-0.0101949
-0.00913708
-0.010098
-0.00722115
-0.0066008
-0.00670275
-0.00737596
-0.000579478
-0.00243097
-0.00162661
-0.000213562
0.0032771
0.00140159
0.0043728
0.00568935
-0.00984782
-0.00864015
-0.00942905
-0.0109659
-0.00721484
-0.00620848
-0.00556944
-0.00768841
0.0111964
0.0131093
0.0113367
0.00887977
-0.0119642
-0.0121371
-0.0105882
-0.0106122
-0.00684808
-0.00605478
-0.00983895
-0.0103629
-0.00392273
-0.0031309
-0.00104216
-0.00247392
-0.00469616
-0.00559505
-0.00669335
-0.00483476
0.000478921
0.000110674
1.18288e-05
0.000304912
0.00259239
0.00385655
0.00518742
0.00450065
-0.00671166
-0.00719214
-0.00874781
-0.00787956
0.0187466
0.014894
0.0155365
0.0206768
-0.00590171
-0.00843324
-0.00664328
-0.00351893
0.00304887
0.00269269
0.00432149
0.00505219
-0.0166283
-0.0151147
-0.0157523
-0.0173974
0.00961015
0.0106957
0.00777831
0.0066746
-0.0101319
-0.0106217
-0.0122765
-0.0118196
0.00239753
0.0018439
0.00382785
0.00718093
-0.0113808
-0.00892274
-0.0152379
-0.013604
-0.00599131
-0.00623868
-0.00697396
-0.00663782
0.00493297
0.00740944
0.00492748
0.00299955
-0.0143098
-0.0156871
-0.0146857
-0.0131741
-0.0069887
0.00114637
-0.0116242
-0.0131279
-0.00723701
-0.00704734
-0.0088042
-0.00854597
-0.0111098
-0.0114051
-0.0135421
-0.0134418
-0.00837564
-0.0100566
-0.0117278
-0.00894773
0.00514415
0.00520171
0.0119315
0.0105753
-0.0112329
-0.0124138
-0.0131146
-0.0121696
0.00110245
-0.00111945
0.00215899
-0.000958744
-0.00430788
-0.00855978
-0.00442071
0.0055583
0.0139852
0.0168124
0.0149246
0.0127932
-0.00313624
-0.00458799
-0.00344845
-0.00204097
-0.00367739
-0.00335471
-0.00332078
-0.00392053
-0.0143603
-0.0135779
-0.0149856
-0.0155919
0.00374031
0.00432615
0.00121113
0.00087986
-0.0046389
-0.00422566
-0.00529678
-0.0058476
0.00243204
0.00769881
0.00507753
0.00164096
-0.00818362
-0.00968247
-0.0102054
-0.00829576
-0.00666402
-0.00659749
-0.00715568
-0.00730437
-0.0103843
-0.00775655
-0.00714793
-0.00931392
-0.00712075
-0.00878229
-0.00725732
-0.00553532
-0.000690172
-0.00281615
-0.00122929
0.001031
-0.0154556
-0.016785
-0.0171165
-0.016829
0.0013242
0.00136981
0.000225602
0.000814794
-0.00229716
-0.00343711
-0.00281629
-0.00156169
-0.00488359
-0.00564221
-0.00524449
-0.00424493
-0.00548054
-0.00747136
-0.0084595
-0.00629913
-0.00546565
-0.00319785
-0.00199217
-0.00779001
-0.0114565
-0.0132661
-0.0129638
-0.0108913
-0.00266516
-0.0028947
-0.00322906
-0.00352501
0.000277621
9.46438e-05
-0.00112351
-0.000653138
-0.0149303
-0.0134083
-0.0140489
-0.0157086
-0.00460831
-0.00520703
-0.00231501
-0.00197971
0.0256961
0.0254319
0.0200371
0.0262659
-0.00707259
-0.0133481
-0.0131266
-0.0066761
0.00854313
0.0105153
0.0137668
0.0114424
0.00256213
0.00249456
0.00653091
0.0107826
-0.00581525
-0.0102386
-0.00795356
-0.00422302
-0.00138065
0.000593857
0.00789243
0.0100986
-0.00558431
-0.0065318
-0.00549794
-0.00470676
0.00215458
-0.000462475
0.00102108
0.00143263
0.000701591
0.000564151
0.00102066
0.00177642
-0.0155798
-0.0181513
-0.0285313
-0.0235572
0.00228738
0.00327368
0.00185866
0.000550053
0.0032481
0.000523827
0.00177028
0.00289387
-0.00305423
-0.00298168
-0.000791391
-0.00107974
-0.0113329
-0.0101531
-0.0149472
-0.0122339
-0.00405853
-0.00387373
-0.00359522
-0.00369443
0.00167729
-0.00819475
-0.0232282
-0.0195119
0.0234887
0.00575576
0.0260445
0.0337858
-0.000630936
-0.000578351
-0.00140635
-0.00140371
-0.00707127
-0.00287325
-0.00384847
-0.0114573
-0.0112427
-0.0129002
-0.0105004
-0.00885177
-0.00344206
-0.00302307
-0.00332707
-0.00361311
-0.00236023
-0.00362296
-0.00335392
-0.00227911
0.0200735
0.00794774
0.0174994
-0.00249996
-0.00377177
-0.00277111
0.00875009
0.00759573
0.00659788
-0.00428551
-0.00428406
-0.004741
0.00865154
0.00559863
0.00733625
0.00201431
0.00174526
0.00344704
0.0047384
-0.000951039
-0.0101034
-0.00707597
-0.00726252
-0.00620429
0.00295378
0.000671915
0.00130452
-0.00965442
-0.0086752
-0.00997103
-0.0129642
-0.013605
-0.00996615
-0.0119323
-0.0105446
-0.0143925
0.00967611
0.00886331
0.00812547
-0.00461913
-0.0071079
-0.00503002
-0.0157249
-0.0140533
-0.0147285
-0.00572705
-0.00540145
-0.00469225
0.00237136
-0.000565706
0.000633479
0.00687418
0.00597517
0.00567033
-0.00388081
-0.00376557
-0.00380331
0.0027608
0.00062293
0.000981954
-0.0043714
-0.00423284
-0.00392656
0.0139661
0.0130117
-0.00105294
-0.00112805
-0.00828273
-0.00629731
-0.0139031
-0.013197
-0.0130625
0.00113042
0.000909316
0.00116788
-0.00436119
-0.00437897
-0.00378952
-0.0081716
-0.00885168
-0.00790692
-0.0150088
-0.0172139
-0.0170221
-0.00303114
-0.00519086
-0.00417199
-0.0168143
-0.0168014
-0.0156575
-0.00627745
-0.00697632
-0.00653055
-0.0164296
-0.0154075
-0.0165765
-0.00021618
0.00115377
0.00187518
-0.00179905
-0.00395109
-0.00358686
0.00574777
0.00671266
0.00314467
-0.00432733
-0.00373326
-0.00479774
0.00228646
0.000671785
0.00208443
-0.0113983
-0.0112836
-0.0128143
-0.00362141
-0.00268831
-0.00338171
0.00207283
0.00143379
0.00138447
-0.0429104
-0.0460808
-0.0303357
-0.00235324
-0.000417706
-0.000504496
-0.00875681
-0.0063078
-0.00739336
0.000472232
0.000115802
0.00111586
-0.00970581
-0.00824314
-0.00943427
</DataArray>
<DataArray type='Float64' Name='gamma_xy' format='ascii'>
-0.0138207
-0.00122707
-0.0261746
-0.063725
0.00785325
0.00419484
0.00532635
0.00976615
0.0118922
0.0179476
0.0187915
0.013434
0.0223409
0.0230644
0.0268589
0.025892
0.0442105
0.0380265
0.0403666
0.0451005
0.00433697
0.00543281
0.00195515
0.000543161
-0.00051168
0.00103573
0.000729537
-0.000332781
0.044222
0.0544789
0.0492255
0.0475882
0.0302799
0.025102
0.0210001
0.0267311
-0.00110781
0.00182813
0.0012645
-0.000711974
0.0181534
0.0263816
0.0200671
0.00859432
0.0238106
0.023361
0.0282922
0.0276492
0.0632088
0.0619555
0.0651479
0.0646487
0.00234551
-0.00152681
-0.00209887
0.00326629
0.00272374
0.00827189
0.0111989
0.00255204
-0.00396615
-0.00316447
-0.00210733
-0.00167842
0.0437131
0.0404903
0.0329614
0.0362132
-0.00203238
-0.00257918
-0.00670397
-0.00505777
-0.0097209
-0.011926
-0.0110605
-0.00911089
0.038993
0.0452434
0.0287483
0.0262801
0.0360778
0.0182348
0.0362802
0.0462747
0.00421947
0.0195951
0.0262755
0.0127865
0.0576715
0.05256
0.0518274
0.056746
0.0532765
0.052777
0.0579
0.0581879
0.045638
0.0509049
0.053208
0.0486995
0.0519316
0.0558348
0.0588478
0.0553485
0.0653833
0.0646735
0.0658639
0.0654668
0.059883
0.0598424
0.0577673
0.0569107
-0.0143606
-0.00720658
0.00182594
-0.00687385
0.047362
0.0474053
0.0492327
0.0479596
-0.0139779
-0.0116398
-0.0112426
-0.0168271
0.00246378
0.00232839
0.000650113
0.0004135
0.0500825
0.0424736
0.037619
0.0462789
0.0323293
0.0221245
0.0185374
0.0299281
0.0503718
0.0552894
0.0502889
0.0416177
0.0588079
0.0615629
0.0565638
0.0547591
0.0246359
0.0202253
0.0161124
0.01949
0.0439409
0.0397031
0.0384683
0.0429028
0.0299882
0.0390077
0.042178
0.0339405
-0.0173978
-0.0102713
-0.00555683
-0.0124531
0.0474075
0.051772
0.051212
0.046686
0.0364087
0.0363762
0.0321187
0.0313717
0.0395311
0.0422246
0.0421277
0.0397602
0.0347686
0.0424572
0.0391207
0.0300653
0.0322091
0.0280837
0.0235215
0.0274577
0.0336202
0.0366823
0.0358257
0.0304108
0.018197
0.00611957
0.00567364