<VTKFile type='UnstructuredGrid' version='0.1' byte_order='BigEndian'>
<UnstructuredGrid>
<Piece NumberOfPoints='180' NumberOfCells='311'>
<Points>
<DataArray type='Float64' NumberOfComponents='3' Format='ascii'>
0 0 0
0 1 0
1 1 0
1 0 0
0 0.3 0
0.3 0 0
0.0520945 0.295442 0
0.102606 0.281908 0
0.15 0.259808 0
0.192836 0.229813 0
0.229813 0.192836 0
0.259808 0.15 0
0.281908 0.102606 0
0.295442 0.0520945 0
0 0.377778 0
0 0.455556 0
0 0.533333 0
0 0.611111 0
0 0.688889 0
0 0.766667 0
0 0.844444 0
0 0.922222 0
1 0.888889 0
1 0.777778 0
1 0.666667 0
1 0.555556 0
1 0.444444 0
1 0.333333 0
1 0.222222 0
1 0.111111 0
0.377778 0 0
0.455556 0 0
0.533333 0 0
0.611111 0 0
0.688889 0 0
0.766667 0 0
0.844444 0 0
0.922222 0 0
0.111111 1 0
0.222222 1 0
0.333333 1 0
0.444444 1 0
0.555556 1 0
0.666667 1 0
0.777778 1 0
0.888889 1 0
0.197394 0.281908 0
0.567322 0.06499 0
0.283827 0.196211 0
0.5 0.903775 0
0.0694835 0.574522 0
0.8995 0.507056 0
0.277778 0.903775 0
0.911486 0.281801 0
0.722222 0.906972 0
0.0640836 0.72706 0
0.723624 0.0652464 0
0.404092 0.0655805 0
0.0673575 0.416667 0
0.905731 0.72366 0
0.0712704 0.880219 0
0.876044 0.0711581 0
0.0911825 0.332046 0
0.334761 0.0899797 0
0.244316 0.241834 0
0.304705 0.249712 0
0.341235 0.196586 0
0.370677 0.253318 0
0.330604 0.308447 0
0.401268 0.312722 0
0.36204 0.370163 0
0.434916 0.377868 0
0.390121 0.441624 0
0.469962 0.447993 0
0.512006 0.382488 0
0.423659 0.514359 0
0.506725 0.521437 0
0.34151 0.50657 0
0.374951 0.580558 0
0.439518 0.254804 0
0.292947 0.57156 0
0.325363 0.649627 0
0.412223 0.660424 0
0.261969 0.503116 0
0.291475 0.362427 0
0.24838 0.635927 0
0.360603 0.73162 0
0.451381 0.741732 0
0.504823 0.667225 0
0.543633 0.749422 0
0.600999 0.674798 0
0.637851 0.75892 0
0.699441 0.681625 0
0.65722 0.593796 0
0.751949 0.595911 0
0.711734 0.509518 0
0.404922 0.825093 0
0.736016 0.76616 0
0.146311 0.311564 0
0.19621 0.339845 0
0.146109 0.367522 0
0.202169 0.393062 0
0.144997 0.427134 0
0.605161 0.498297 0
0.668856 0.418344 0
0.761942 0.429066 0
0.719684 0.343545 0
0.631248 0.332333 0
0.677492 0.26228 0
0.593175 0.257181 0
0.636003 0.188312 0
0.555699 0.192878 0
0.737429 0.190278 0
0.0887054 0.486848 0
0.145987 0.557393 0
0.115745 0.615467 0
0.255256 0.303287 0
0.156242 0.915007 0
0.222361 0.818421 0
0.914513 0.156826 0
0.816471 0.136781 0
0.820867 0.339597 0
0.49081 0.0651298 0
0.447816 0.129529 0
0.613916 0.913992 0
0.906382 0.6217 0
0.644466 0.065517 0
0.311902 0.145442 0
0.374385 0.136134 0
0.408196 0.194428 0
0.833162 0.903874 0
0.75839 0.270971 0
0.305486 0.435497 0
0.809161 0.67899 0
0.0673575 0.805556 0
0.132937 0.764008 0
0.912501 0.391392 0
0.479285 0.19366 0
0.514065 0.256794 0
0.558573 0.59502 0
0.220668 0.562066 0
0.915071 0.831665 0
0.276141 0.723481 0
0.457952 0.589889 0
0.535275 0.448413 0
0.799989 0.511721 0
0.475359 0.317279 0
0.385895 0.917041 0
0.181146 0.498199 0
0.0608634 0.65 0
0.305436 0.798379 0
0.197035 0.70621 0
0.798975 0.066001 0
0.83648 0.219153 0
0.522825 0.12959 0
0.551396 0.322988 0
0.597322 0.130687 0
0.494458 0.810178 0
0.681608 0.128225 0
0.130994 0.838036 0
0.830474 0.78761 0
0.0514442 0.350264 0
0.576092 0.829771 0
0.344109 0.0401981 0
0.254811 0.401768 0
0.126222 0.678931 0
0.582521 0.39185 0
0.918574 0.918574 0
0.670564 0.840397 0
0.843154 0.442118 0
0.942556 0.067819 0
0.0677247 0.94349 0
0.751621 0.117306 0
0.22455 0.452636 0
0.24297 0.352905 0
0.175673 0.625999 0
0.770726 0.844344 0
0.100218 0.378727 0
0.337647 0.863159 0
0.833396 0.583076 0
</DataArray>
</Points>
<PointData Vectors='Velocity'>
<DataArray type='Float64' Name='Ux' Format='ascii'>
0
0
0.0503547
-0.0824241
0
-0.0757779
-0.00925947
-0.0181595
-0.0267126
-0.0350631
-0.0434103
-0.0516978
-0.0598868
-0.0679294
0
0
0
0
0
0
0
0
0.0331404
0.0181909
0.00457049
-0.00831916
-0.021236
-0.0347031
-0.049124
-0.0647464
-0.0757864
-0.0761407
-0.0768702
-0.0778566
-0.0789608
-0.0801031
-0.0811795
-0.0820554
0.013678
0.0233192
0.0311024
0.0373991
0.0421168
0.0456381
0.0480778
0.0496906
-0.0257256
-0.0680735
-0.0437644
0.0276273
-0.000775243
-0.0137237
0.0179006
-0.0409241
0.0335078
0.00133888
-0.0698936
-0.0662947
-0.00380368
0.0112478
0.00418031
-0.0703869
-0.010483
-0.0620774
-0.0346597
-0.0355939
-0.0449995
-0.0371853
-0.0281803
-0.0300745
-0.021883
-0.0232557
-0.0153735
-0.0165919
-0.024548
-0.00939609
-0.00988638
-0.00853983
-0.0033462
-0.0388558
-0.00321202
0.0016307
0.00274933
-0.0069688
-0.0200086
0.000573118
0.00761171
0.00997021
0.00375142
0.0119634
0.00487448
0.0140765
0.0059205
-0.00352688
-0.0034715
-0.0128059
0.016258
0.015776
-0.0177465
-0.0176585
-0.0115797
-0.0127277
-0.00738285
-0.0132369
-0.0227472
-0.0222228
-0.0321231
-0.0325406
-0.0420396
-0.0416071
-0.0514944
-0.0497426
-0.0522681
-0.00283243
-0.00214144
-0.000251866
-0.0256252
0.011275
0.00930935
-0.0578257
-0.0603012
-0.0332367
-0.067171
-0.0571808
0.032214
-0.000699762
-0.0689372
-0.0528809
-0.0551668
-0.0468007
0.0344586
-0.0416452
-0.0133762
0.00583276
0.00255631
0.0038652
-0.0272803
-0.0483215
-0.0402595
-0.00307654
-0.0029011
0.0249749
0.00564787
-0.00313402
-0.0177201
-0.0129415
-0.0315383
0.0247212
-0.00518562
0.000272477
0.0110871
0.00327099
-0.0705618
-0.0489292
-0.0582354
-0.032448
-0.0590735
0.017216
-0.0604043
0.00610557
0.0188719
-0.00501854
0.0211227
-0.0697963
-0.014495
0.00137663
-0.0247132
0.0372553
0.0240667
-0.0210797
-0.0712693
0.00574503
-0.0626295
-0.00923705
-0.0188272
3.37645e-05
0.0258336
-0.00757117
0.0173676
-0.00500829
</DataArray>
<DataArray type='Float64' Name='Uy' Format='ascii'>
0
0
-0.132311
-0.135251
0
-0.030518
-0.00401696
-0.00744916
-0.0117803
-0.0163395
-0.0207784
-0.0247038
-0.0277813
-0.029784
0
0
0
0
0
0
0
0
-0.131576
-0.130327
-0.129522
-0.129431
-0.13009
-0.131332
-0.132846
-0.134356
-0.0419599
-0.0529283
-0.0636796
-0.0745219
-0.0856026
-0.097051
-0.108994
-0.121545
-0.00976344
-0.0202189
-0.032765
-0.0470587
-0.0625275
-0.078963
-0.0959107
-0.11347
-0.0169007
-0.0681328
-0.0285082
-0.0535767
-0.00318944
-0.11477
-0.0244397
-0.11818
-0.0868566
-0.00302472
-0.0903945
-0.0456273
-0.00285069
-0.115399
-0.00387707
-0.113784
-0.00541611
-0.0357321
-0.0230364
-0.0309815
-0.0364096
-0.0397697
-0.0335435
-0.0429849
-0.036655
-0.0465386
-0.0392988
-0.0504308
-0.0573504
-0.0429904
-0.0548704
-0.031776
-0.0355818
-0.0490696
-0.0248731
-0.028675
-0.0403099
-0.0215851
-0.0274557
-0.019293
-0.0332753
-0.0457969
-0.053579
-0.0592077
-0.0679438
-0.0734673
-0.0831176
-0.0769433
-0.0916137
-0.0858735
-0.0396729
-0.0887268
-0.0108804
-0.0159787
-0.00999166
-0.0158286
-0.00916358
-0.0697268
-0.0800531
-0.0941354
-0.0883273
-0.0752652
-0.0826564
-0.0704526
-0.0771264
-0.0657409
-0.0919137
-0.00412915
-0.00888163
-0.00648334
-0.023776
-0.0117044
-0.0170535
-0.119604
-0.104142
-0.103747
-0.0575904
-0.0514014
-0.0703885
-0.11546
-0.0789679
-0.032471
-0.0412897
-0.0455216
-0.104243
-0.0946579
-0.0279812
-0.100306
-0.00337496
-0.00805121
-0.117447
-0.0551939
-0.0593043
-0.0619291
-0.0163825
-0.117231
-0.0226244
-0.0471606
-0.059864
-0.0994953
-0.0531136
-0.0381027
-0.0124087
-0.00279221
-0.026594
-0.0138403
-0.101696
-0.106878
-0.0616592
-0.0637651
-0.0719897
-0.0522085
-0.0840334
-0.0084572
-0.103636
-0.00218868
-0.0642286
-0.0370718
-0.0220382
-0.00732427
-0.0674738
-0.118159
-0.0786566
-0.106521
-0.124779
-0.00429198
-0.0943552
-0.0176269
-0.0213682
-0.0116523
-0.0942461
-0.00558704
-0.0312024
-0.104333
</DataArray>
<DataArray type='Float64' Name='U' Format='ascii'>
0
0
0.141569
0.158388
0
0.0816923
0.0100933
0.019628
0.0291948
0.0386834
0.0481269
0.0572969
0.0660168
0.074172
0
0
0
0
0
0
0
0
0.135685
0.131591
0.129602
0.129698
0.131812
0.135839
0.141638
0.149143
0.0866268
0.0927298
0.0998204
0.107774
0.116459
0.125839
0.135904
0.14665
0.0168051
0.030864
0.0451764
0.06011
0.0753891
0.091203
0.107286
0.123873
0.0307805
0.0963124
0.0522307
0.0602804
0.0032823
0.115588
0.0302941
0.125065
0.0930959
0.0033078
0.114264
0.0804788
0.00475336
0.115946
0.00570146
0.133795
0.0117995
0.0716267
0.041617
0.0471887
0.0578845
0.0544461
0.0438097
0.0524612
0.0426903
0.0520256
0.0421988
0.0530901
0.0623832
0.0440053
0.0557539
0.0329035
0.0357388
0.0625907
0.0250797
0.0287214
0.0404035
0.0226822
0.033973
0.0193015
0.0341348
0.0468696
0.0537101
0.0604042
0.0681184
0.0748037
0.0833282
0.0770241
0.0916795
0.0868231
0.0428749
0.0901185
0.0208164
0.0238147
0.0152945
0.0203111
0.0117677
0.0709721
0.0832222
0.096723
0.0939873
0.0819984
0.092733
0.0818213
0.092737
0.082439
0.105736
0.00500725
0.00913614
0.00648823
0.0349564
0.0162517
0.019429
0.132849
0.12034
0.108941
0.0884794
0.0768879
0.0774098
0.115462
0.104825
0.0620544
0.0689072
0.065288
0.10979
0.103414
0.0310141
0.100475
0.0042338
0.00893094
0.120573
0.0733576
0.0716786
0.0620055
0.0166373
0.119862
0.0233188
0.0472647
0.0624316
0.100333
0.0617715
0.0454198
0.0134487
0.00280548
0.0288126
0.0142215
0.123778
0.117546
0.0848128
0.0715462
0.0931246
0.0549738
0.103491
0.0104308
0.10534
0.00547504
0.0676128
0.0790306
0.0263778
0.00745252
0.0718572
0.123893
0.0822561
0.108587
0.143698
0.00717122
0.113249
0.0199005
0.0284792
0.0116524
0.0977226
0.00940944
0.0357102
0.104453
</DataArray>
</PointData>
<CellData Scalars='scalars'>
<DataArray type='Float64' Name='Parts' format='ascii'>
1
1
1
1
1
1
1
1
1
1
1
1
1
1
1
1
1
1
1
1
1
1
1
1
1
1
1
1
1
1
1
1
1
1
1
1
1
1
1
1
1
1
1
1
1
1
1
1
1
1
1
1
1
1
1
1
1
1
1
1
1
1
1
1
1
1
1
1
1
1
1
1
1
1
1
1
1
1
1
1
1
1
1
1
1
1
1
1
1
1
1
1
1
1
1
1
1
1
1
1
1
1
1
1
1
1
1
1
1
1
1
1
1
1
1
1
1
1
1
1
1
1
1
1
1
1
1
1
1
1
1
1
1
1
1
1
1
1
1
1
1
1
1
1
1
1
1
1
1
1
1
1
1
1
1
1
1
1
1
1
1
1
1
1
1
1
1
1
1
1
1
1
1
1
1
1
1
1
1
1
1
1
1
1
1
1
1
1
1
1
1
1
1
1
1
1
1
1
1
1
1
1
1
1
1
1
1
1
1
1
1
1
1
1
1
1
1
1
1
1
1
1
1
1
1
1
1
1
1
1
1
1
1
1
1
1
1
1
1
1
1
1
1
1
1
1
1
1
1
1
1
1
1
1
1
1
1
1
1
1
1
1
1
1
1
1
1
1
1
1
1
1
1
1
1
1
1
1
1
1
1
1
1
1
1
1
1
1
1
1
1
1
1
1
1
1
1
1
1
1
1
1
1
1
1
1
1
1
1
1
1
</DataArray>
<DataArray type='Float64' Name='e_x' format='ascii'>
0.0319308
0.00624808
0.0221833
-0.0717244
0.00577608
0.0312017
0.0438798
0.00703483
0.00746411
-0.0289438
0.0137619
-0.0192464
-0.0370607
0.00670435
0.0296114
-0.000264337
0.00189053
0.0150971
0.0105365
0.011033
0.0412378
0.00636597
0.0137988
0.0421838
-0.0124852
-0.0326157
0.00505059
0.0354717
-0.0863195
0.000224177
0.0347266
0.00520661
0.013255
-0.00186548
0.00539627
0.00635047
-0.123102
0.00328115
0.0372977
0.00221209
0.0097117
0.0310782
0.056287
0.0500168
0.00069012
-0.0602056
-0.0355636
0.0128187
-0.063086
0.00163742
0.0141519
0.0493383
-0.0282192
0.0909331
0.0363793
0.0102843
0.0274133
0.0177032
0.011537
-0.0867708
0.0057688
0.0564699
0.0171942
0.00706726
0.013312
0.0975529
0.0115065
0.000108874
0.00455604
0.00430226
-0.0700493
0.00936336
0.00528051
0.00782399
0.0125549
-0.0424599
0.0225781
0.0218665
-0.0394961
0.00409512
0.0296124
0.0532677
0.0334684
0.0093316
-0.00235547
-0.0105509
-0.0212191
0.0220919
-0.0316916
-0.0497778
0.0171336
-1.14092e-05
0.0111572
0.00232442
-0.0399563
0.0010777
-0.00327494
0.00816629
0.00937951
0.014176
0.0018476
-0.0127318
0.0126815
-0.0145153
0.0197949
-0.000574492
-0.0219568
-0.0032789
0.0033065
0.0110234
-0.0646854
0.0232167
0.0399815
0.0190475
0.0121687
0.00441109
-0.00291406
0.0580274
0.0478536
0.0102171
0.0098264
0.0119684
0.0732578
0.0226063
0.0115316
0.00601128
0.00732329
0.0762694
0.014197
0.00183739
-0.00445679
0.0777968
0.0359783
-0.001979
-0.00549105
0.0116135
0.0034562
0.00636592
-0.00395743
0.00735518
0.0121701
0.00409378
0.0198594
-0.00313451
0.00186032
0.0126602
0.00755576
0.017843
-0.0208928
-0.0138217
0.00872016
0.0146871
0.065426
0.0817951
0.0088464
0.00428299
0.0122392
0.00203548
-0.00448219
-0.0119269
0.0396915
-0.00900166
-0.0417978
-0.00185958
-0.000724458
-0.0170006
0.0231528
0.0704808
-0.00362792
-0.0165516
-0.00360036
0.0140552
-0.00399668
-0.00402638
-0.0462281
0.000883209
0.00953324
0.0115854
-0.00198005
0.0226488
-0.0379513
0.0142922
0.00610713
0.171153
0.0178614
0.0015657
0.0271515
-0.0296462
0.0317888
0.103113
0.00791592
-0.015969
0.0297003
0.0180468
0.016243
0.0134892
0.00438964
0.0340265
0.143962
0.00712802
-0.0586543
-0.00594705
-0.0059769
0.0112614
0.0237888
0.00364292
0.031629
0.0521089
0.0225698
0.00112244
-0.0169227
0.0133576
-0.0129728
0.0225701
0.0351415
0.0325762
0.00635743
-0.0425246
-0.0520595
0.0239971
-0.00447686
0.0179802
0.0372898
0.013839
0.0605734
0.00313195
-0.0566698
-0.0290178
-0.0297125
0.0179182
-0.0310968
0.0660598
0.0103666
-0.0186857
0.0222973
0.0488753
0.021744
0.0279478
-0.0256453
0.0025919
0.0129101
-0.0127945
0.0251877
0.0688646
-0.021923
0.0525147
0.0208931
0.0138093
0.0010994
0.0270547
0.059167
0.011593
-0.0490259
0.000872102
0.0124942
0.0141765
0.00812083
0.100038
0.010321
0.00230687
0.0439448
-0.00852211
-0.0114001
0.0117176
0.00516168
-0.0168896
0.05025
0.0103503
-0.013489
0.0176599
-0.0214644
0.0133285
-0.00104888
-0.000600788
-0.0201255
-0.000965207
0.00824242
-0.0124317
0.0151053
-0.00607819
-0.0181928
-0.00577202
-0.0397938
-0.0122575
-0.00623614
0.0183566
-0.00848344
-0.0458998
0.102605
0.000479726
-0.0757304
0.00520471
0.00924759
0.00400853
0.00474035
-0.0848291
-0.010971
0.0168846
0.00428778
0.00125442
-0.0403067
-0.00597167
0.00245077
-0.0226981
-0.0172201
0.0259681
-0.02994
0.0438466
0.00994124
-0.00396214
0.0461294
</DataArray>
<DataArray type='Float64' Name='e_y' format='ascii'>
0
-0.00162628
-0.000579226
0.0114572
-0.00616608
0.000111555
-0.013963
-0.00373877
-0.00625063
0.00626573
-0.00363638
0.00375805
0.0112563
-0.00011918
-0.00595275
-0.00101757
-0.00583522
-0.0104345
-0.00893567
-0.0105098
0.00454479
-0.00388087
-0.00691346
-0.0179214
0.00308786
0.00685572
-0.00566781
-0.0116575
0.0260857
-0.0045467
-0.000621704
-0.00318416
0.0058831
0.000402934
-0.00812062
-0.00805955
0.0293584
-0.00735269
-0.0181878
-0.0081133
-0.0103256
-0.0160074
-0.00976006
-0.00679529
-0.00305406
0.0174559
0.00738342
-0.00958182
0.0175724
-0.00749779
-0.00905497
-0.0133837
0.00824021
-0.015544
0.00814146
-0.00943871
-0.0114464
-0.00888161
-0.00353633
0.0271294
-0.0135849
0
-0.0108712
-0.00745193
-0.00664588
0
-0.00738836
0.00161599
-0.000663306
-0.007769
0.0213276
-0.00308416
-0.0136334
-0.00780106
-0.00362859
0.0126411
-0.0101489
-0.0062155
0.010353
-0.00615172
-0.0149339
-0.00152128
-0.012144
-0.00401562
0.00151841
0.00154801
0.00619103
-0.0112036
0.0089712
0.0145917
-0.00716097
0.00036404
0
-0.0059329
0.0113178
-0.00282107
-0.00392938
-0.00725052
-0.00324294
-0.00797076
-0.00570401
0.00367516
-0.00438398
0.00437413
-0.00758775
0.000814497
0.00623666
0.00724996
-0.00551087
-0.0049091
0.0138287
-0.0118065
-0.0169327
-0.0127482
-0.00365761
-0.0111721
-0.00205532
-0.00937568
-0.011122
-0.0070915
-0.00797963
-0.00288762
-0.00782197
-0.00193712
-0.00530806
-0.00607821
-0.00772779
-0.0136667
-0.00466871
-0.00419334
-0.0015813
-0.000200472
-0.0141909
-0.000737345
0.011237
-0.0037909
-0.00157688
-0.00724704
-0.0021225
0.00461895
-0.00544681
-2.17834e-05
-0.0117553
-0.00192378
-0.0064578
-0.000669949
-0.00428993
-0.0107218
0
-0.000166663
-0.0076678
-0.00491836
0.00137613
-0.0196272
-0.00578638
-0.00546616
-0.00545378
0.00355201
-0.00403444
-0.00067148
-0.0100979
-0.000932896
0.00799913
-0.00320396
0.00343721
0.00111479
-0.0150385
-0.0121572
-0.000627691
0.00321211
-0.00351605
-0.00928825
-0.00421216
-0.00154863
0.0105809
0.00260553
-0.00465999
-0.00339844
-0.00141004
-0.0140513
0
-0.0116367
-0.00758583
-0.0324687
0.00821019
-0.00100994
-0.0156161
0.00714938
-0.015493
-0.011248
0.00478674
0.00132108
-0.0170052
0.00379519
-0.00948629
-0.0101123
-0.00627342
-0.0182
-0.0266974
-0.00856227
0
0.00661667
0.00422819
-0.00433946
-0.0147667
0.000704948
-0.0163947
-0.0118495
-0.0106863
-0.00323722
0.0019891
-0.00464615
0.00107154
-0.00749931
-0.0151523
-0.0101917
-0.0062315
0.0111959
0.0167468
-0.0143287
0
-0.0128795
-0.00538603
-0.00478944
-0.0154803
-0.00534904
0.0171649
0.00144953
0.00243062
-0.0118857
0.00700316
-0.0152575
-0.00305752
0.00305221
-0.0142495
-0.0166425
-0.0121238
-0.0141958
0.00503152
-0.00398652
6.82335e-05
0.00152254
-0.00835491
-0.0142433
0.00290488
-0.0162339
-0.0143594
-0.00580814
-0.00263219
-0.016586
-0.0186959
-0.00471118
0.00397868
0.00331637
-0.0031591
-0.0048007
-0.0024059
-0.0110759
-0.00460477
-0.00620824
-0.0175333
0.00131745
0.00140527
-0.00664641
-0.00631878
0.00382026
-0.0154926
-0.0042333
0.00230413
-0.0121175
0.00598408
-0.00759297
-2.30797e-05
-5.7303e-06
0.00493931
0.0039763
-0.00297049
0.00247642
-0.0118661
0.00170186
0.0024847
-0.000322255
0.00748049
0.00345735
0.00320765
-0.0117378
0.00413746
0.00260932
-0.0325634
0.00126627
0.00993442
-0.0018426
-0.00295628
-0.0059172
-0.00514425
0
0.00012184
-0.013161
-0.00578114
-0.0049549
0.0101685
0.00194594
-0.0059135
0.00332854
0.00479465
-0.00601998
0.00665811
-0.0175345
-0.00493461
0.000577761
-0.0150658
</DataArray>
<DataArray type='Float64' Name='gamma_xy' format='ascii'>
0.046549
-0.0129405
0.0276449
0.0586768
0.0157771
0.0427624
-0.0149812
0.0124055
0.023025
0.0315284
-0.0145509
0.0607546
0.0372068
-0.0111137
0.0564582
0.060816
0.025507
0.0375509
0.0488534
0.0387695
0.0185628
0.0113211
-0.0144356
0.010055
0.0537932
0.0500473
0.0197745
-0.0202437
0.0180262
0.0191678
-0.0520483
0.00939236
0.0551631
0.0389223
0.0295461
0.0136863
0.0420033
0.0486453
0.0344412
0.0287862
0.0450181
0.0315765
-0.0346077
0.0531728
0.041222
0.0448338
0.0579117
0.0181811
0.0136766
0.0254471
0.00649669
-0.0144621
0.0125549
-0.0165313
-0.0611723
0.0305389
-0.0104742
0.0041295
-0.00360757
0.0197522
0.024703
0.0423218
0.000743542
0.0467635
0.00984817
0.0425448
0.0206377
-0.00181249
-0.005539
0.0515904
0.0161605
-0.0048514
0.0267296
0.0396133
-0.0207071
0.0131541
0.0634521
-0.0203184
0.0423278
0.0555705
0.0517456
0.0283499
0.0419059
-0.010967
0.025904
0.0248133
0.00938585
-0.0134836
0.011276
0.0161237
-0.0051404
0.0328473
0.0459021
0.0324913
0.0123075
0.033573
0.0484212
0.0323198
-0.00456681
-0.00834189
0.0460894
0.00780182
-0.00258538
0.00798744
-0.0118796
0.0338032
0.00902172
0.0316058
0.0507106
0.0669429
0.0405127
0.0488171
0.00982255
0.046758
-0.00185288
0.0300707
0.0614143
-0.0566895
0.033381
0.0123786
0.0568266
0.0474527
0.038389
-0.0294212
-0.00657325
0.0241582
0.039693
-0.0277589
-0.000899436
0.0465128
0.0567496
0.00549838
0.0533251
0.0653581
0.0267814
-0.000172535
-0.00282085
0.0332024
0.0514893
-0.0259995
-0.00205891
0.0324771
-0.00595996
0.0462573
0.0314193
-0.0195594
0.0103069
0.0592704
0.0471996
0.0520046
0.0226225
0.000407107
-0.0775695
-0.0426442
0.0655168
0.0444448
0.0577584
-0.0136946
0.0572756
0.0472505
0.0585144
0.0428259
0.0644416
0.0458631
0.029345
0.0571922
0.0345518
0.0239247
0.0651717
0.052928
0.0597428
0.0285459
0.0521523
0.0629256
0.0443594
0.0551153
0.0147304
-0.000796698
0.0408906
0.0479235
0.0501052
0.0455538
0.0219208
-0.00106046
-0.0383696
-0.00101791
0.00174133
0.0285625
-0.00617977
-0.0797462
-0.0195755
0.0635174
0.0346573
-0.0410623
0.0162578
0.0548475
0.0401926
0.0153437
-0.0595112
0.0543216
0.0543994
0.012254
0.0146723
0.00469597
0.0336901
-0.00764609
0.0163499
0.0400875
-0.00255352
0.040502
0.0602373
-0.0043545
0.0332647
-0.0238395
-0.00327391
-0.0208745
0.0609141
0.0447448
0.0344557
0.0204235
0.0458767
0.0345956
-0.034999
0.00221601
0.00096272
0.0199825
0.0158184
0.0579254
0.0344318
0.0442362
0.0518287
0.0110173
0.000377658
0.0583404
0.00775296
0.00386864
0.0107208
0.00441773
0.0511246
0.0409181
0.0566754
0.0326237
0.0626895
0.0167958
0.0439233
0.0212536
0.0222226
0.0006564
0.0429951
0.0190828
-0.00187667
0.00139333
0.0332205
0.0535878
0.0635246
-0.00890843
0.00173641
-0.00560228
0.00494712
0.0339308
0.0297533
0.036158
0.0418162
0.0033093
0.0338187
0.0597173
0.019682
0.00545097
0.0478076
0.0130129
0.0358419
-0.00233224
0.0584491
0.0363773
0.026177
0.0249564
0.00479933
0.0233812
0.026257
0.00770572
0.0371336
0.0390051
0.0447369
0.0247827
0.0324762
0.0245036
0.0212618
0.059186
-0.0098536
-0.00490407
0.0312798
0.00461297
0.00245907
0.03647
0.0157643
0.0633739
0.0559076
0.0357798
0.03917
0.0436127
0.0312781
0.0438061
0.0378174
0.0416196
0.0282254
0.049722
0.0476131
0.0296604
0.00659851
0.0308308
0.0445263
</DataArray>
<DataArray type='Float64' Name='stress_x' format='ascii'>
175.444
31.6494
120.931
-375.205
21.5728
171.622
218.082
32.4901
30.7083
-148.704
69.6208
-99.555
-185.076
36.6406
152.888
-3.12972
0.769027
65.7516
43.1637
43.2968
234.072
28.5808
64.4217
202.238
-63.5103
-167.906
18.4079
175.684
-431.284
-6.26282
189.781
23.3591
82.5272
-9.58573
16.2642
21.6077
-627.99
5.9085
174.952
-1.21925
36.3407
144.373
293.181
263.617
-1.2423
-302.026
-183.234
54.6385
-317.661
-3.36219
62.832
249.028
-141.468
474.011
213.306
40.9486
131.755
82.6304
57.5608
-432.044
9.30406
310.274
76.5539
26.5477
62.1881
536.005
51.0441
3.26193
23.9398
10.8328
-349.731
46.3633
6.54108
30.1301
63.0018
-212.459
107.327
109.9
-199.946
12.3604
138.089
290.172
163.875
44.6534
-10.4393
-55.4204
-106.384
102.917
-159.342
-249.452
82.3368
0.537379
61.3034
2.99203
-200.884
1.27132
-24.4712
32.9183
46.1903
64.7517
0.749429
-63.8972
62.4524
-72.5441
96.256
-1.81397
-110.362
-6.06545
9.08374
52.4761
-332.62
108.103
191.768
83.6429
60.8317
5.8213
-19.3992
303.377
244.599
44.4484
40.838
61.0004
389.622
121.017
54.6106
23.01
27.4997
396.535
70.3096
3.18345
-27.0944
427.124
174.292
-12.0891
-11.6482
57.5615
16.3909
23.0319
-25.2427
48.0267
57.8907
22.4574
89.7406
-20.3937
-0.42321
68.4574
34.4439
80.3651
-114.795
-76.2183
35.2738
72.5911
361.752
417.071
39.0686
14.5228
58.2586
17.0389
-31.2776
-66.639
201.44
-50.9974
-216.473
-15.4987
1.6852
-91.5723
102.425
367.218
-20.9683
-85.6482
-25.5779
61.9163
-28.9029
-24.6756
-236.559
9.14762
44.6991
58.0545
-13.2036
101.283
-208.524
59.3472
21.0516
886.884
111.673
6.93802
123.443
-151.107
149.126
548.013
51.3843
-85.5643
135.158
105.414
73.6105
57.4477
13.7781
156.959
746.995
25.0513
-322.276
-21.7695
-25.8706
54.7226
106.367
21.1781
146.761
266.781
106.395
0.831158
-89.7034
65.7349
-69.5128
111.65
168.109
162.191
24.6592
-215.197
-258.437
108.233
-24.5981
77.5625
196.011
68.1437
307.304
8.39145
-283.079
-157.049
-159.249
78.8599
-159.318
337.816
51.9195
-97.6374
99.0244
241.113
99.4883
130.159
-132.614
7.67
71.0473
-67.7896
124.622
354.899
-115.668
261.783
91.1279
66.3016
1.70189
121.313
294.276
55.9319
-262.815
10.2583
63.4422
69.9796
40.6542
531.401
49.1185
2.44174
212.554
-44.6531
-60.3217
53.4268
17.9453
-86.5031
250.562
49.8915
-70.3176
77.0583
-108.072
60.7174
-5.80111
-3.31048
-102.438
1.25101
40.3916
-64.2238
63.4368
-30.5914
-95.8649
-32.2456
-206.317
-61.6497
-28.9772
81.5126
-39.7923
-247.895
510.088
4.72312
-399.726
25.5601
45.938
12.2712
17.5663
-466.094
-60.0796
71.0786
14.0299
-1.27502
-204.704
-29.6038
3.71826
-119.228
-86.7126
132.759
-153.53
212.012
46.4882
-20.8176
228.625
</DataArray>
<DataArray type='Float64' Name='stress_y' format='ascii'>
52.6331
1.36345
33.3833
-55.2756
-24.3586
52.0443
-4.39044
-8.94682
-22.0406
-13.2825
2.70433
-11.0763
0.758946
10.3963
16.1026
-6.02678
-28.9454
-32.447
-31.7293
-39.5601
92.9457
-10.8301
-15.2408
-28.9355
-3.61379
-16.0933
-22.8167
-5.58206
1.04293
-24.6123
53.8258
-8.91305
54.1737
-0.861051
-35.7238
-33.8154
-41.6048
-34.9909
-38.4535
-40.9323
-40.726
-36.725
39.154
45.1085
-15.643
-3.32845
-18.053
-31.5176
-7.43628
-38.4976
-26.4252
7.78991
-1.23929
64.4832
104.699
-34.909
-17.7053
-19.6189
-0.413383
6.03396
-65.1331
93.0823
-31.3897
-29.2953
-14.5729
160.802
-21.6285
9.05855
3.86542
-35.5952
1.71862
-1.51184
-66.2048
-29.9663
0.757596
-0.532005
-18.5467
1.89264
-8.21865
-27.0504
-33.2428
79.4451
-11.5576
-6.68208
4.4603
-8.88608
-0.959983
-25.1432
-2.94657
-1.87738
-11.1038
1.98142
18.391
-28.7669
-3.67621
-13.724
-26.9883
-26.3771
-2.35764
-20.4283
-28.2952
-0.793357
-3.18416
0.107424
-9.06192
3.52829
-1.92522
34.4302
-24.8292
-8.80267
-30.6427
-26.6014
-27.1334
-38.6484
-0.0385171
-54.1139
-16.0964
44.1348
17.7697
-22.123
-27.6467
3.862
77.7768
26.6196
-10.1571
-23.4881
-30.389
50.6268
-2.25066
-20.0117
-16.0348
127.135
-18.6669
-7.31344
52.6903
-1.68603
-2.96714
-29.3256
-18.1853
37.5028
-9.86683
6.6283
-31.8542
-15.737
-32.416
17.1875
-11.1165
-29.4993
-34.4386
-23.6988
-27.7569
-2.81446
115.406
26.9853
-17.2113
-22.974
-9.79131
22.8717
-29.5555
-23.3491
9.94275
-19.9637
-24.9462
-20.6694
17.6916
-21.8977
-44.4651
49.3792
-9.42894
-9.6339
-25.2536
-27.8664
-29.7317
-15.1459
-18.0633
15.7719
-9.89022
0.424148
-11.0113
-39.8719
-62.5571
-40.3795
-31.6137
103.722
74.5528
-2.96828
-41.0475
-9.58506
-32.7275
108.164
39.349
-19.0639
-44.4788
50.6002
-25.3483
-33.3273
-27.2337
-43.9123
90.6112
-35.2959
-96.6828
26.5525
13.3798
-5.28052
-41.9234
9.87816
-37.9452
20.7865
-21.5129
-15.9368
-16.9655
-3.51028
-15.4962
-4.00153
-25.3288
-2.30109
-23.7598
-8.57979
6.20285
-39.1736
-7.37944
-41.1289
31.8732
-3.50412
14.7898
-24.2278
0.900675
-39.867
-35.6216
-35.7708
-12.7796
25.0573
0.28826
-14.0302
-41.5404
-10.8785
-30.7724
-31.9312
-14.6268
-17.6316
21.6554
-12.7242
-4.38784
35.2531
-20.1759
-2.6343
-44.4588
-9.15022
-12.6504
-46.5363
-5.19693
-6.77633
-58.9511
19.6594
3.23716
-3.00966
0.166753
104.041
-8.28832
-30.3087
-23.9006
-6.80868
-11.0702
-17.204
-26.2103
-6.84962
-2.29442
-6.19905
-9.57462
-37.4699
-2.50135
-19.7496
-1.85573
-1.02179
-6.03486
20.2568
-2.73496
-6.88503
-40.2993
-0.668142
-16.336
-11.2849
-24.4926
-1.20815
7.34511
-34.2352
8.74962
-61.322
-9.79058
7.74829
-70.2456
-1.54498
-0.999991
-25.9046
-20.4514
-139.828
-17.4147
-44.4815
-24.6967
-25.157
-10.5687
0.848565
-28.452
-19.1258
-2.04052
9.72775
-12.7686
-24.0691
-10.7266
-3.35649
-6.74162
</DataArray>
<DataArray type='Float64' Name='tau_xy' format='ascii'>
89.5173
-24.8857
53.1632
112.84
30.3406
82.2354
-28.8099
23.8567
44.2788
60.6316
-27.9824
116.836
71.5515
-21.3724
108.573
116.954
49.0519
72.2133
93.9489
74.5568
35.6977
21.7713
-27.7608
19.3365
103.448
96.2448
38.0279
-38.9302
34.6657
36.8612
-100.093
18.0622
106.083
74.8506
56.8194
26.3197
80.7757
93.5487
66.2331
55.3581
86.5733
60.7241
-66.5532
102.255
79.2731
86.2188
111.369
34.9637
26.3012
48.9367
12.4936
-27.8117
24.144
-31.7911
-117.639
58.7286
-20.1428
7.94135
-6.93763
37.985
47.5058
81.3881
1.42989
89.9298
18.9388
81.8169
39.6878
-3.48556
-10.6519
99.2124
31.0779
-9.32961
51.4031
76.1794
-39.8214
25.2963
122.023
-39.0738
81.3997
106.866
99.5108
54.519
80.5884
-21.0905
49.8154
47.7179
18.0497
-25.9301
21.6846
31.0072
-9.88538
63.1679
88.2732
62.4832
23.6682
64.5635
93.1177
62.1535
-8.78232
-16.0421
88.6335
15.0035
-4.97188
15.3605
-22.8454
65.0062
17.3495
60.7804
97.5204
128.736
77.909
93.8791
18.8895
89.9193
-3.56324
57.8284
118.104
-109.018
64.1942
23.805
109.282
91.2553
73.8251
-56.5793
-12.6409
46.4581
76.3326
-53.3825
-1.72968
89.4476
109.134
10.5738
102.548
125.689
51.5028
-0.331799
-5.42471
63.8507
99.0179
-49.9991
-3.95945
62.4559
-11.4615
88.9564
60.4217
-37.6141
19.8209
113.982
90.7685
100.009
43.5049
0.782898
-149.172
-82.0081
125.994
85.4708
111.074
-26.3358
110.145
90.8663
112.528
82.3574
123.926
88.1982
56.4326
109.985
66.4458
46.0091
125.33
101.785
114.89
54.896
100.293
121.011
85.3066
105.991
28.3277
-1.53211
78.6358
92.1606
96.3561
87.6034
42.1554
-2.03935
-73.7876
-1.95752
3.3487
54.928
-11.8842
-153.358
-37.6452
122.149
66.6487
-78.966
31.265
105.476
77.2935
29.5072
-114.445
104.465
104.614
23.5653
28.216
9.0307
64.7887
-14.704
31.4421
77.0913
-4.91062
77.8885
115.841
-8.37405
63.9706
-45.8452
-6.29599
-40.1433
117.142
86.0477
66.2609
39.276
88.2244
66.53
-67.3058
4.26156
1.85138
38.4278
30.4201
111.395
66.2149
85.0697
99.6706
21.1871
0.726265
112.193
14.9095
7.43969
20.6168
8.49563
98.3165
78.6887
108.991
62.7379
120.557
32.2996
84.4679
40.8723
42.7358
1.26231
82.6828
36.6978
-3.60898
2.67949
63.8856
103.054
122.163
-17.1316
3.33925
-10.7736
9.5137
65.2516
57.2178
69.5345
80.4158
6.36403
65.0359
114.841
37.85
10.4826
91.9377
25.0247
68.9267
-4.48507
112.402
69.9563
50.3403
47.9931
9.22947
44.9638
50.4942
14.8187
71.4107
75.0099
86.0325
47.659
62.4543
47.1223
40.888
113.819
-18.9492
-9.4309
60.1535
8.87109
4.72899
70.1347
30.3159
121.873
107.515
68.8073
75.327
83.8705
60.1502
84.2425
72.7257
80.0377
54.2796
95.6192
91.5637
57.0393
12.6894
59.29
85.6275
</DataArray>
<DataArray type='Float64' Name='stress' format='ascii'>
219.901
53.0875
142.059
401.613
65.9232
208.611
225.891
55.98
89.3725
177.039
83.7564
223.345
223.054
49.3967
237.774
202.637
89.883
152.164
175.267
147.745
213.297
51.63
87.6142
220.706
189.531
231.384
74.9521
190.849
435.961
67.5802
242.394
42.5679
197.574
129.97
108.66
66.4773
624.139
166.494
227.98
104.022
164.147
196.359
298.826
301.671
138.129
335.45
260.387
96.7893
317.296
92.4573
82.309
249.913
146.929
448.676
275.037
121.128
145.681
94.9895
59.0051
440.039
108.191
309.718
96.2026
163.104
77.8591
497.041
94.354
9.97981
28.9121
176.916
354.701
49.8303
113.074
141.84
93.1628
216.67
241.914
128.273
241.413
188.362
233.391
276.361
219.923
60.5919
87.2935
97.411
110.425
125.812
162.295
254.256
90.0559
109.424
162.313
112.406
203.249
112.751
163.339
119.318
49.7935
81.8835
156.173
68.6157
64.6796
77.3193
108.56
112.692
113.463
111.865
171.625
230.244
345.821
204.229
209.248
189.681
61.1631
115.367
205.351
340.956
261.076
71.7527
198.466
168.769
379.343
147.431
64.1837
89.9815
141.405
385.067
71.5243
156.451
190.492
380.304
255.984
217.954
107.16
58.4256
20.3563
119.568
172.981
97.0134
63.7723
110.007
110.999
155.185
109.497
89.72
53.5859
220.624
187.423
185.93
93.1225
74.0509
411.329
428.483
223.871
151.618
202.664
50.0445
193.193
167.929
276.879
149.43
296.91
153.896
99.1965
207.726
173.975
354.267
217.839
194.123
200.612
124.001
176.17
210.702
271.745
184.093
70.3227
57.9044
136.751
203.389
249.408
174.849
86.2516
839.848
161.361
9.43591
148.404
174.722
169.156
568.594
80.1141
225.421
198.957
164.455
104.209
199.251
138.671
189.918
733.361
188.404
338.944
58.5061
59.8571
59.6328
173.561
31.3929
177.52
289.634
118.928
135.896
216.956
69.0979
127.561
138.686
182.426
177.535
207.185
258.359
285.662
148.717
154.365
155.487
216.284
70.3499
300.199
72.7379
288.384
239.205
184.688
178.969
230.894
328.069
51.7912
214.76
127.718
247.068
123.213
149.445
211.8
138.133
199.036
125.311
244.333
343.241
181.265
272.468
140.753
71.3518
143.853