<VTKFile type='UnstructuredGrid' version='0.1' byte_order='BigEndian'>
<UnstructuredGrid>
<Piece NumberOfPoints='180' NumberOfCells='311'>
<Points>
<DataArray type='Float64' NumberOfComponents='3' Format='ascii'>
0 0 0
0 1 0
1.0623 0.833255 0
0.932187 -0.126248 0
0 0.3 0
0.234853 -0.039718 0
0.0446952 0.286067 0
0.0881304 0.267628 0
0.128324 0.239982 0
0.164119 0.204889 0
0.193767 0.163263 0
0.216339 0.11621 0
0.231191 0.0656821 0
0.237376 0.0131915 0
0 0.377778 0
0 0.455556 0
0 0.533333 0
0 0.611111 0
0 0.688889 0
0 0.766667 0
0 0.844444 0
0 0.922222 0
1.03773 0.736223 0
1.01919 0.63609 0
1.00556 0.531635 0
0.994042 0.425 0
0.982574 0.316399 0
0.970458 0.206607 0
0.958185 0.0959953 0
0.945622 -0.0151098 0
0.31266 -0.0494996 0
0.39008 -0.0594037 0
0.467205 -0.0689084 0
0.544391 -0.0783908 0
0.62173 -0.0877538 0
0.699098 -0.0974201 0
0.776667 -0.107199 0
0.85445 -0.116623 0
0.121583 0.98402 0
0.241088 0.972951 0
0.359575 0.960863 0
0.47726 0.947187 0
0.593791 0.932846 0
0.710128 0.915466 0
0.826234 0.896366 0
0.943445 0.870821 0
0.176875 0.258243 0
0.508863 -0.00757991 0
0.247244 0.160004 0
0.522784 0.847589 0
0.0691245 0.572034 0
0.886839 0.391243 0
0.290481 0.876194 0
0.876044 0.166337 0
0.751151 0.81604 0
0.0645886 0.72482 0
0.664228 -0.0264964 0
0.347284 0.0130175 0
0.066345 0.413128 0
0.913995 0.601876 0
0.0727398 0.876135 0
0.816872 -0.0398766 0
0.0841511 0.322498 0
0.281907 0.0461275 0
0.215976 0.211623 0
0.275251 0.21252 0
0.30329 0.153509 0
0.33947 0.208176 0
0.307686 0.270201 0
0.376135 0.265661 0
0.344209 0.330262 0
0.41518 0.328474 0
0.377466 0.40047 0
0.455341 0.395733 0
0.490504 0.322681 0
0.415218 0.470429 0
0.497126 0.465333 0
0.334637 0.474116 0
0.371516 0.544871 0
0.406455 0.201169 0
0.290397 0.547304 0
0.325835 0.621645 0
0.413073 0.619938 0
0.257373 0.481332 0
0.275933 0.331275 0
0.248373 0.617836 0
0.365415 0.698417 0
0.457826 0.695209 0
0.50602 0.613001 0
0.551235 0.689444 0
0.602373 0.605861 0
0.64688 0.683969 0
0.701159 0.596256 0
0.651323 0.515155 0
0.745963 0.501971 0
0.698618 0.42188 0
0.416699 0.784222 0
0.746241 0.674135 0
0.132965 0.294926 0
0.183639 0.319011 0
0.139411 0.353941 0
0.193732 0.374559 0
0.141641 0.41692 0
0.592153 0.426772 0
0.64773 0.336331 0
0.741072 0.333747 0
0.691057 0.253693 0
0.6025 0.254596 0
0.640665 0.177426 0
0.556923 0.183592 0
0.591582 0.108214 0
0.512862 0.123194 0
0.692458 0.0972211 0
0.0878566 0.482952 0
0.145131 0.549446 0
0.115557 0.609903 0
0.234961 0.274138 0
0.16253 0.900093 0
0.227834 0.801 0
0.865382 0.0411093 0
0.765253 0.0334441 0
0.791458 0.235989 0
0.433095 0.00196135 0
0.398853 0.0723414 0
0.641217 0.840784 0
0.904427 0.502558 0
0.585465 -0.0165416 0
0.267178 0.104984 0
0.327389 0.0879803 0
0.368412 0.143199 0
0.863459 0.791829 0
0.721884 0.175567 0
0.295571 0.405588 0
0.811038 0.575094 0
0.0679596 0.802518 0
0.134658 0.756417 0
0.888602 0.275391 0
0.437902 0.133656 0
0.479343 0.193653 0
0.553906 0.532019 0
0.219021 0.546503 0
0.936694 0.703719 0
0.279415 0.701524 0
0.454045 0.542155 0
0.519155 0.386724 0
0.787075 0.41065 0
0.448385 0.260742 0
0.405543 0.875505 0
0.178473 0.485992 0
0.0609022 0.648065 0
0.312821 0.771144 0
0.19857 0.693418 0
0.739381 -0.0353074 0
0.794262 0.113472 0
0.472797 0.0631762 0
0.523082 0.256285 0
0.546541 0.0549759 0
0.506803 0.756695 0
0.629865 0.0419008 0
0.133341 0.828668 0
0.844161 0.678246 0
0.050135 0.346642 0
0.592152 0.764035 0
0.2842 -0.00509441 0
0.244461 0.377363 0
0.126713 0.672544 0
0.560328 0.321998 0
0.955042 0.784673 0
0.689447 0.759319 0
0.823594 0.335041 0
0.882982 -0.0512726 0
0.0694117 0.937878 0
0.698342 0.0222208 0
0.218893 0.434023 0
0.228895 0.3278 0
0.175594 0.615546 0
0.791307 0.745269 0
0.0974579 0.371173 0
0.350215 0.830182 0
0.826791 0.476439 0
</DataArray>
</Points>
<CellData Scalars='scalars'>
<DataArray type='Float64' Name='Parts' format='ascii'>
1
1
1
1
1
1
1
1
1
1
1
1
1
1
1
1
1
1
1
1
1
1
1
1
1
1
1
1
1
1
1
1
1
1
1
1
1
1
1
1
1
1
1
1
1
1
1
1
1
1
1
1
1
1
1
1
1
1
1
1
1
1
1
1
1
1
1
1
1
1
1
1
1
1
1
1
1
1
1
1
1
1
1
1
1
1
1
1
1
1
1
1
1
1
1
1
1
1
1
1
1
1
1
1
1
1
1
1
1
1
1
1
1
1
1
1
1
1
1
1
1
1
1
1
1
1
1
1
1
1
1
1
1
1
1
1
1
1
1
1
1
1
1
1
1
1
1
1
1
1
1
1
1
1
1
1
1
1
1
1
1
1
1
1
1
1
1
1
1
1
1
1
1
1
1
1
1
1
1
1
1
1
1
1
1
1
1
1
1
1
1
1
1
1
1
1
1
1
1
1
1
1
1
1
1
1
1
1
1
1
1
1
1
1
1
1
1
1
1
1
1
1
1
1
1
1
1
1
1
1
1
1
1
1
1
1
1
1
1
1
1
1
1
1
1
1
1
1
1
1
1
1
1
1
1
1
1
1
1
1
1
1
1
1
1
1
1
1
1
1
1
1
1
1
1
1
1
1
1
1
1
1
1
1
1
1
1
1
1
1
1
1
1
1
1
1
1
1
1
1
1
1
1
1
1
1
1
1
1
1
1
</DataArray>
<DataArray type='Float64' Name='e_x' format='ascii'>
0.0095693
0.00947716
0.00750378
-0.0540658
0.000151719
0.0223059
0.0437561
0.00436463
0.00281999
-0.0246793
0.0148455
-0.0150723
-0.0383553
0.00765195
0.0219021
6.82909e-05
-0.00137014
0.0201158
0.0162007
0.0150936
0.0116409
0.00225954
0.0148885
0.0420824
-0.00777809
-0.0238925
0.00301485
0.036352
-0.0817977
-0.00164104
0.030056
0.00295463
0.00552142
-0.0197257
-0.000604207
0.000679816
-0.0942471
0.0114584
0.0417475
-0.00536176
0.015024
0.0387249
0.0476379
0.0318084
-0.0149224
-0.057177
-0.0331281
0.0132714
-0.062007
-0.00174969
0.0134618
0.0464639
-0.0266348
0.0704971
0.031604
0.010439
0.0297131
0.0198867
0.00950655
-0.0755456
0.000913937
0.0150315
0.0178482
0.00938885
0.0134931
0.0254503
0.0122224
-0.000381768
0.00461068
0.0113859
-0.0663851
0.00982323
-0.00234334
0.0107935
0.0152961
-0.0487744
0.0305362
0.0230484
-0.0375644
0.0112735
0.0368299
0.032594
0.0378397
0.00979783
-0.0196511
-0.0198392
-0.0261678
0.0232487
-0.047038
-0.050551
0.017771
-0.0320834
0.00516733
-0.0168831
-0.0424512
-0.0222726
0.00260565
0.0081686
0.00838908
0.0143008
0.0028167
-0.0178926
0.00760344
-0.0549067
0.0210883
-0.0305093
-0.0449486
-0.0454865
0.0114447
0.0162074
-0.0412945
0.0311829
0.0439158
0.0256996
0.00784253
-0.00786166
0.000717308
0.0490138
0.0498833
0.00749211
0.016712
0.00444253
0.0376163
0.0246929
0.00950471
0.00357485
0.00779816
0.0615091
0.00564554
0.002912
0.00134587
0.02044
0.0416206
0.0018176
-0.0772003
0.00788552
0.00231326
0.00411846
0.00445904
0.0105898
0.00783323
0.00254517
0.0211559
0.00290482
-0.0141023
0.0154612
0.00249094
0.0245411
-0.00787974
-0.0062918
0.00727695
0.00526467
0.0510592
0.0648679
0.015749
-0.000235081
0.0174542
0.00601528
0.00114119
-0.00624583
0.0382406
-0.00491455
-0.0362403
-0.00365353
-0.0472001
-0.0109136
0.0281143
0.0724544
0.000469853
-0.0102351
0.00247302
0.0171227
0.00430079
0.0023679
-0.0422386
0.000879969
0.0075091
0.00457747
-0.00381805
0.0303617
-0.00893799
0.0206448
0.0011255
0.132455
0.0198822
0.00472673
0.0295123
-0.0288483
0.0334568
0.0795108
0.0111834
-0.00945491
0.0352643
0.0201251
0.018203
0.0198188
0.000111855
0.0374871
0.106832
0.0131111
-0.0206168
-0.0961184
-0.0696923
-6.19725e-05
0.0317047
0.00607126
0.0369174
0.0560682
0.0254437
-0.0147634
-0.0136708
0.0119123
-0.00438519
0.0246679
0.038737
0.0340265
0.0123722
-0.038895
-0.0540493
0.0289048
-0.000636503
0.0235297
0.0377321
0.0026847
0.0516962
0.00111303
-0.0591635
-0.0173758
-0.00842688
0.0234667
-0.0276618
0.0699711
0.00384903
-0.0148378
0.025242
0.0523155
0.0259888
0.0319742
-0.0187398
-0.00654426
0.0120632
-0.0119439
0.0257351
0.0606071
-0.010338
0.0556096
0.0249747
0.0129601
-0.00660338
0.0309291
0.0628349
0.00458758
-0.0151853
0.000189597
0.0116147
0.0143017
0.00270396
0.0937311
0.00381714
-0.0066488
0.0489298
-0.00335938
-0.00472496
0.00802151
-0.000715639
-0.0134218
0.0509999
0.00766965
-0.00565117
0.0198574
-0.0190021
0.0118752
0.00214686
-0.0174284
-0.0236224
-0.0766455
0.00403433
-0.0113551
0.0167254
-0.0320083
-0.0170485
-0.01252
-0.0227927
-0.0164066
-0.0307838
0.0229974
-0.0431525
-0.0220795
0.0935771
0.00336812
-0.0234179
-2.96984e-05
0.00335308
-0.00926871
0.000521052
-0.0249104
-0.00432922
0.0216694
-0.000712597
-0.00590297
-0.0415491
-0.00235976
-0.00722993
-0.0224083
-0.0156589
0.0262528
-0.0261593
0.0474777
0.00432984
-0.007312
0.04698
</DataArray>
<DataArray type='Float64' Name='e_y' format='ascii'>
0
-0.011258
-0.00726469
0.0305855
0.000251606
-0.0188749
-0.0363986
-0.00269509
-0.000168145
0.0203314
-0.0111134
0.015886
0.0346308
-0.00572026
-0.0172965
-0.000504528
-0.000276476
-0.0167701
-0.0142905
-0.0152432
-0.0092683
-0.00288324
-0.0176848
-0.0418201
0.0056526
0.0190622
-0.00435234
-0.0387791
0.0824363
0.000957172
-0.0338538
-0.00225452
-0.000433097
0.0270184
0.00366237
-0.000243573
0.0730662
-0.0118333
-0.0416626
0.00373754
-0.016776
-0.0356896
-0.0365773
-0.0219712
0.0129792
0.0484557
0.0221653
-0.0128764
0.057728
0.000939692
-0.0143801
-0.0465654
0.0292289
-0.0542178
-0.0186726
-0.0107903
-0.0244178
-0.0162952
-0.00791612
0.0654475
5.34707e-05
0
-0.0199902
-0.00839043
-0.0110128
0
-0.0103007
0.000678198
-0.00438129
-0.0136729
0.0572796
-0.00837197
0.00449415
-0.009896
-0.0179144
0.0394725
-0.0251024
-0.0175386
0.0366006
-0.00829226
-0.0327376
-0.0280851
-0.0352817
-0.0112595
0.0181943
0.0186622
0.0301165
-0.026329
0.0357455
0.049046
-0.0140436
0.0269166
0
0.0225945
0.0418929
0.0208282
-0.00375383
-0.00710543
-0.00834532
-0.0164412
-0.00225595
0.022514
-0.00742213
0.0449633
-0.0165675
0.0402833
0.0338833
0.0599041
-0.0098382
-0.0114507
0.0349247
-0.0329017
-0.0384841
-0.0274584
-0.00666125
0.0118704
-0.00606129
-0.0540327
-0.0429887
-0.00744388
-0.0203196
-0.00438638
-0.0239213
-0.017504
-0.0106773
-0.004078
-0.00584689
-0.0465955
-0.00530478
-0.00103772
0.00289877
-0.0160697
-0.0351137
0.00122345
0.0988029
-0.00645287
-0.0023152
-0.00317875
-0.0023102
-0.0136118
-0.00838657
-0.0034444
-0.0240469
-0.00168068
0.0129677
-0.0111105
-0.00257536
-0.0203153
0
0.00118359
-0.00657421
-0.00502606
-0.0325919
-0.0710901
-0.0106325
0.00212588
-0.0194904
-0.00794704
-0.00628106
0.0019652
-0.030665
0.00359578
0.0264717
0.00349278
0.0408203
0.00378722
-0.0274604
-0.0542911
0.0036244
0.0131573
-0.00753143
-0.0137238
-0.00724682
0.00190736
0.040294
0.000244086
-0.00492746
-0.00398578
0.00562138
-0.026972
0
-0.0219562
0.00111585
-0.102919
-0.0119142
-0.00425061
-0.0315833
0.0225182
-0.036065
-0.055091
-0.00671291
0.00722735
-0.0351038
-0.0237707
-0.0157351
-0.0168244
-0.000488181
-0.0378875
-0.0769518
-0.0163668
0
0.126712
0.0652587
9.6064e-05
-0.0298317
-0.00433284
-0.0332866
-0.0543943
-0.0208691
0.0193605
0.00672953
-0.00924445
0.00256298
-0.0283519
-0.0329676
-0.0268895
-0.00807683
0.0327677
0.0486022
-0.0266649
0
-0.0224623
-0.0281238
-0.00263513
-0.0541948
-0.00233237
0.0490716
0.00708019
0.00848683
-0.0199868
0.0195331
-0.056522
-0.00324557
0.00797044
-0.0271189
-0.048273
-0.0225424
-0.0279099
0.0118018
0.00845443
-0.0109835
0.0105874
-0.0216002
-0.0650602
0.008366
-0.0557818
-0.0260888
-0.0105103
0.0112587
-0.0312435
-0.0550639
-0.00443574
0.011305
0.00132559
-0.00781049
-0.0107496
-0.00220939
-0.0657398
-0.00408597
0.00506199
-0.0433737
0.00552082
0.00777633
-0.00822725
0.00245395
0.0191083
-0.043229
-0.00654576
0.0104439
-0.0207266
0.0202734
-0.0132442
-0.00545926
0.0154009
0.0200316
0.0583803
-0.00301399
0.00885979
-0.0176579
0.0332077
0.0104621
0.0149991
0.0262685
0.0177413
0.0398531
-0.0198427
0.0586191
0.00903842
-0.103742
-0.00448717
0.0282899
8.31976e-05
-0.00285361
0.0139935
-0.000700388
0
0.00113359
-0.0228041
0.00317197
0.00467506
0.035688
0.00186721
0.00574841
0.0122074
0.0166313
-0.0261946
0.0236437
-0.0467608
-0.00356886
0.00965351
-0.0429389
</DataArray>
<DataArray type='Float64' Name='gamma_xy' format='ascii'>
0.0439132
-0.0133935
0.0361646
0.108461
0.00387464
0.0712627
-0.00733111
0.0179237
0.0255199
0.0341904
-0.0107899
0.0807012
0.0388827
-0.016631
0.0743569
0.070952
0.024141
0.0621374
0.0748649
0.0560264
0.0413101
0.0146861
-0.0109029
0.0174785
0.0702121
0.0686191
0.0230371
-0.016744
0.0389611
0.00554926
-0.0493822
0.0081969
0.06689
0.0723898
0.0278541
0.00337465
0.0607238
0.0776824
0.0435364
0.0197833
0.0692751
0.0478204
-0.0311214
0.0769362
0.0722681
0.0611268
0.0815586
0.0278221
0.00972056
0.0126478
0.0186092
-0.0242534
0.00161306
-0.0100783
-0.0595563
0.045161
-0.00283776
0.0181508
-0.00010902
0.0102866
0.0098438
0.0525337
0.0111504
0.0724948
0.0240433
0.0704061
0.0310314
-0.00413905
-0.00122824
0.077381
0.00641621
-0.00222307
0.0141583
0.0593128
-0.0208245
-0.00334714
0.0915252
-0.015888
0.0666524
0.0793114
0.0737831
0.0719335
0.0623588
-0.00712508
0.0677607
0.0475234
-0.00625014
-0.0099562
-0.0026276
0.0115354
0.00367186
0.0563792
0.0357998
0.0325733
0.00449592
0.0445937
0.0792303
0.0490409
-0.001496
-0.00221451
0.0777274
-0.0082783
-5.82609e-05
0.00935931
-0.00528777
0.0466815
-0.0111584
0.0541535
0.076599
0.0934828
0.0754899
0.076969
0.0234096
0.0725055
0.00123211
0.0214121
0.0905413
-0.0512588
0.0539664
0.0210464
0.0875958
0.0611862
0.0810908
-0.0269294
-0.00111759
0.0291274
0.0521117
-0.025418
-0.00031385
0.0734328
0.0786729
0.0524437
0.0802492
0.0842872
0.0576016
0.00531592
-0.0054556
0.0430954
0.0731267
-0.02769
0.00260501
0.0290065
0.000886545
0.0747728
0.0310393
-0.0187026
0.00742255
0.0840478
0.0349494
0.0708033
0.0264216
0.00249551
-0.0656432
-0.0314984
0.0953087
0.0697344
0.0850474
-0.0149203
0.0821339
0.0704591
0.0863351
0.0751642
0.0844033
0.0768064
0.068094
0.0827321
0.0497417
0.0633904
0.0902082
0.075598
0.0900964
0.0489477
0.0755252
0.0897689
0.0594307
0.0611129
0.0240836
0.000907278
0.0700081
0.0693011
0.0450946
0.0697106
0.0199902
0.0614465
-0.0357861
-0.00525267
0.00661533
0.0268931
-0.00354615
-0.0639342
-0.0203016
0.0739584
0.0476894
-0.0389349
0.0309663
0.0789666
0.0559017
0.025513
-0.0476645
0.0810043
0.0572962
0.0555119
0.0905388
0.00025135
0.0526923
-0.0138225
0.031861
0.0575467
0.00856134
0.0685906
0.0854428
0.00262098
0.0275559
-0.0230312
0.00455305
-0.0144693
0.0866452
0.0516975
0.0401017
0.0365061
0.0317852
0.0545863
-0.0287134
0.00358347
-0.00379719
0.0172204
0.00611921
0.0734085
0.0393095
0.0643636
0.0704133
0.0279985
0.00426058
0.0813552
0.0162866
0.0217481
0.0239161
0.0138033
0.068426
0.0631956
0.0791416
0.0521146
0.0878376
0.0122369
0.0596034
0.022996
0.0376896
0.0100061
0.0675609
0.0309982
-0.00307412
0.00386376
0.0408009
0.0699401
0.086111
-0.00335452
0.00421471
0.00933644
0.00745358
0.037757
0.0510828
0.0539368
0.0547869
0.00991998
0.048464
0.0816665
0.0306664
0.0118684
0.0623463
0.0241543
0.0348339
0.00519516
0.0827885
0.0727973
0.0323662
0.0840142
0.00881549
0.0372456
0.0438171
0.0163622
0.047126
0.0738821
0.0770149
0.0448012
0.0778593
0.0458158
0.0767399
0.084412
-0.00842182
-0.0108684
0.069216
0.000252468
0.00541164
0.0407087
0.00270085
0.0828527
0.0617594
0.0562113
0.0483297
0.0709677
0.0433306
0.0569855
0.0484423
0.0509622
0.0340782
0.079608
0.0637142
0.0460951
0.0115635
0.0521618
0.0549245
</DataArray>
<DataArray type='Float64' Name='stress_x' format='ascii'>
251.824
-17.2374
25.4094
-698.39
9.95168
139.96
289.404
51.0278
70.2279
-167.922
127.458
-20.3921
-189.148
65.8874
166.719
-10.1522
-42.6043
132.176
87.8743
36.1764
86.8283
-8.82559
-27.049
116.955
-70.8093
-177.276
-23.7436
38.1804
-200.133
-20.5153
-10.8525
24.3567
135.043
120.81
70.8403
12.1211
-749.673
21.2746
111.873
-52.5782
-1.95825
173.797
387.325
316.692
-85.2932
-357.024
-346.822
44.2799
-264.521
-23.7885
13.678
119.868
-8.6543
571.081
389.438
19.1509
203.607
137.395
62.6853
-437.968
25.3174
395.565
-3.76297
48.3541
94.2527
669.744
77.6784
6.01606
17.5661
-24.2022
-390.354
60.2225
44.7736
49.6603
-21.7581
-348.663
209.053
191.151
-121.681
100.276
193.842
192.563
160.162
-8.83411
-86.2169
-80.0854
24.6602
-11.7751
-391.237
-168.674
135.047
-206.804
135.982
90.8409
-124.935
-92.8202
-20.3369
46.6768
23.1129
-13.0606
20.6931
62.3677
24.3032
-379.993
162.568
151.202
-380.36
221.767
68.1655
155.31
-259.534
41.3528
244.213
25.9754
48.6159
74.2541
-124.68
10.1162
294.564
20.8583
-41.4644
13.0208
423.346
235.244
-2.76009
-2.5091
66.7357
515.084
22.9272
52.054
104.073
157.299
263.638
76.8082
308.482
54.6824
6.04159
33.0942
62.628
-43.7054
7.50837
-14.5997
-12.7973
36.6369
-63.9836
143.731
4.55571
164.667
-207.362
-137.541
35.7938
19.5055
571.75
23.337
162.626
44.1634
-2.29328
-29.9225
-118.731
-117.82
280.056
-44.167
-326.732
-13.4218
-275.312
-197.501
89.4744
620.853
98.2056
42.2747
-113.297
125.561
-58.4564
107.487
-157.211
28.9381
80.9047
26.0597
32.6628
160.179
-235.21
23.2683
56.0465
1048.09
241.037
23.7155
28.6142
-225.841
26.272
787.603
135.311
-77.6394
96.6044
-33.3815
106.355
123.075
-8.61863
89.1662
988.834
-42.6056
-542.547
471.633
-288.407
0.644344
127.794
57.1501
183.145
187.192
175.304
70.0271
-200.374
94.5332
-54.6974
-22.3358
238.581
258.578
134.29
-247.476
-271.246
129.114
-16.7501
87.2012
326.859
8.23905
76.8643
-25.9501
-394.711
-289.57
-20.7562
144.174
-265.315
502.666
24.4215
-201.694
21.9742
233.415
150.017
180.403
-213.636
28.0192
57.3177
-63.5583
165.655
54.0243
-73.91
142.264
39.336
92.1288
92.8801
73.9482
349.405
15.6688
-131.863
36.3849
120.665
121.764
18.8292
909.612
3.6781
-55.0792
260.356
42.3515
59.8352
16.2366
39.2872
99.3577
318.258
46.8018
98.6403
31.6693
-19.8958
-1.17176
-72.8019
-93.8863
-147.209
-634.296
34.7827
-88.9823
21.9282
-55.8269
-200.857
25.766
22.3411
-11.5624
133.789
135.237
252.755
-366.971
5.4974
-17.6403
53.7649
1.18893
20.6533
87.5128
-2.87624
-655.537
-87.0788
30.1513
56.3731
-44.6163
-248.155
-17.8756
-54.1149
-300.569
-18.1787
70.4648
-128.421
141.921
29.4175
36.2148
219.341
</DataArray>
<DataArray type='Float64' Name='stress_y' format='ascii'>
226.641
-71.8035
-13.4549
-475.623
10.2145
31.5893
78.471
32.4496
62.3644
-49.4726
59.1446
61.0771
2.92086
30.6974
63.5646
-11.6596
-39.7263
35.1083
7.6342
-43.6571
31.804
-22.3592
-112.768
-103.84
-35.4654
-64.2378
-43.131
-159.533
232.062
-13.6779
-179.036
10.6485
119.373
243.821
82.0681
9.69111
-309.374
-40.0194
-107.627
-28.6327
-85.6426
-22.0305
165.706
175.167
-11.868
-79.0437
-201.313
-24.5301
50.5712
-16.7112
-59.5901
-124.945
138.355
242.884
257.131
-36.7155
61.1577
42.1796
16.8361
-66.9337
23.053
356.009
-103.338
1.56652
29.7635
602.77
18.4072
8.80544
-6.09699
-90.1465
-64.9207
12.3404
62.767
-4.78577
-109.154
-116.434
62.6361
84.343
73.4901
48.7869
10.7692
32.8814
-32.2627
-64.2481
13.3761
21.2342
172.777
-142.243
-173.386
93.4231
51.3243
-51.5406
122.384
194.729
97.0233
20.6029
-37.0724
6.482
-20.925
-93.9606
7.34399
168.701
-15.2377
-117.177
63.4733
337.498
-172.907
499.11
12.158
82.5252
-58.9573
-127.291
27.3713
-113.914
10.4481
126.18
-142.519
-261.059
50.1642
-18.4469
-138.916
-10.2132
261.404
124.2
-55.8707
-22.6482
30.8277
230.598
-5.8894
41.66
108.159
61.2204
61.7061
75.2446
771.648
16.9498
-6.13856
13.891
44.8142
-107.394
-35.1753
-30.3617
-131.752
24.5698
7.25331
73.805
-8.77667
46.6236
-186.625
-117.869
-0.656579
-7.57532
351.616
-334.447
93.2013
50.3764
-99.5157
-66.6654
-138.263
-96.2116
98.7249
-21.7714
-161.701
5.38431
-43.6793
-158.815
-56.7748
287.312
106.507
103.834
-139.624
44.3857
-88.8448
106.276
59.9798
27.2647
48.1769
3.52486
57.5034
9.30132
-211.689
-88.8397
56.021
428.685
157.363
0.090909
-132.164
-90.666
-156.68
433.388
88.2152
-33.7387
-88.5748
-148.897
17.044
26.646
-10.1977
-109.188
505.191
-120.179
-488.292
1058.03
66.727
1.06023
-34.1443
29.7709
-1.60282
-103.499
53.4279
159.827
-146.689
38.8577
-36.4128
-161.862
49.8852
98.2723
80.4772
-58.89
-1.11055
-17.1219
-15.0751
-33.8303
153.554
-5.7605
-201.796
-35.0169
-109.882
-225.212
23.7536
29.8227
-141.118
169.789
5.75149
-141.672
-115.818
-31.2914
22.3035
22.8129
-133.263
67.4894
-3.33159
-4.26553
41.0889
-276.679
-24.689
-150.871
-95.0417
30.3647
139.886
-89.6639
39.1454
-8.07676
-62.1519
39.3743
69.5464
55.8395
5.89929
489.952
-17.1195
-24.2613
17.4521
65.7204
92.7333
-26.5233
47.6282
184.963
70.2869
9.39281
140.996
-75.1309
83.4608
-67.2755
-92.818
-7.49341
-32.3299
-278.965
16.2345
-35.7851
-68.554
115.794
-128.461
98.1847
151.449
78.3005
319.675
22.4997
520.575
-285.082
-513.764
-38.3121
189.838
1.48603
4.31992
148.729
-6.09056
-589.983
-72.703
-86.8842
66.5956
-16.7793
-44.8999
-6.75195
-19.9613
-209.475
66.7956
-67.5548
2.6399
-106.076
8.63148
80.8609
-17.2873
</DataArray>
<DataArray type='Float64' Name='tau_xy' format='ascii'>
57.7805
-17.6231
47.585
142.712
5.09821
93.7666
-9.6462
23.5838
33.5788
44.9873
-14.1973
106.186
51.1615
-21.8829
97.838
93.3579
31.7645
81.7598
98.5065
73.719
54.3554
19.3238
-14.3459
22.998
92.3844
90.2883
30.3119
-22.0316
51.2646
7.30166
-64.9766
10.7854
88.0131
95.2497
36.6502
4.44033
79.8997
102.214
57.2847
26.0307
91.1515
62.9215
-40.9492
101.232
95.0896
80.43
107.314
36.608
12.7902
16.6418
24.4858
-31.9123
2.12245
-13.2609
-78.3636
59.4224
-3.7339
23.8826
-0.143447
13.535
12.9524
69.1234
14.6715
95.3879
31.6359
92.6396
40.8308
-5.44612
-1.61611
101.817
8.44238
-2.92509
18.6294
78.0432
-27.4006
-4.40413
120.428
-20.9053
87.7006
104.357
97.083
94.6494
82.0511
-9.37511
89.1588
62.5308
-8.22386
-13.1003
-3.45737
15.1782
4.83139
74.1831
47.105
42.8596
5.91568
58.676
104.25
64.5275
-1.96842
-2.91383
102.273
-10.8925
-0.0766591
12.3149
-6.95759
61.423
-14.6821
71.2546
100.788
123.004
99.3288
101.275
30.8021
95.402
1.6212
28.1739
119.133
-67.4457
71.0084
27.6927
115.258
80.5081
106.698
-35.4334
-1.47051
38.3255
68.5681
-33.4448
-0.41296
96.6221
103.517
69.0048
105.591
110.904
75.7916
6.99463
-7.17843
56.7044
96.2194
-36.4342
3.42764
38.1664
1.16651
98.3853
40.8412
-24.6087
9.76651
110.589
45.9861
93.1623
34.7652
3.28356
-86.3726
-41.4452
125.406
91.7558
111.904
-19.632
108.071
92.7094
113.599
98.9002
111.057
101.061
89.5973
108.858
65.4497
83.4084
118.695
99.471
118.548
64.4048
99.3752
118.117
78.1983
80.4118
31.6889
1.19379
92.1159
91.1857
59.335
91.7245
26.3029
80.8507
-47.0869
-6.91141
8.70438
35.3856
-4.66598
-84.124
-26.7126
97.3137
62.7492
-51.2301
40.7452
103.903
73.5548
33.5697
-62.7164
106.585
75.3897
73.042
119.13
0.330724
69.3319
-18.1875
41.9224
75.7194
11.2649
90.2508
112.425
3.44866
36.2578
-30.3042
5.99086
-19.0386
114.007
68.023
52.7654
48.0343
41.8226
71.8241
-37.7808
4.71509
-4.9963
22.6584
8.05159
96.5901
51.723
84.6889
92.6491
36.8401
5.60602
107.046
21.4298
28.616
31.4686
18.1623
90.0342
83.1521
104.134
68.5718
115.576
16.1011
78.4255
30.2579
49.5916
13.166
88.8959
40.7872
-4.0449
5.0839
53.6854
92.0264
113.304
-4.41385
5.54568
12.2848
9.80735
49.6803
67.2143
70.9695
72.088
13.0526
63.7685
107.456
40.3505
15.6163
82.0346
31.782
45.8341
6.83573
108.932
95.786
42.5871
110.545
11.5993
49.0074
57.6541
21.5292
62.0079
97.2132
101.335
58.9489
102.446
60.284
100.974
111.068
-11.0813
-14.3005
91.0737
0.332195
7.12057
53.5641
3.55375
109.017
81.2624
73.9623
63.5917
93.3785
57.014
74.9809
63.7399
67.0555
44.8398
104.747
83.8344
60.6515
15.2151
68.634
72.2691
</DataArray>
<DataArray type='Float64' Name='stress' format='ascii'>
260.238
71.7418
89.2276
665.504
13.4051
206.257
259.773
60.577
88.4543
168.551
113.18
198.035
210.215
68.5383
223.506
162.073
68.7586
184.707
190.315
145.25
121.048
38.7391
104.955
195.43
171.362
220.503
64.4701
185.623
385.011
22.0749
207.11
28.218
199.01
267.965
99.8474
13.51
667.041
185.063
214.44
64.122
179.155
215.4
343.988
325.956
183.111
353.413
354.319
87.5731
293.933
35.7557
79.6983
219.116
142.927
496.938
368.869
114.066
181.069
128.734
56.1924
409.305
33.0464
395.883
104.641
171.934
99.833
658.736
99.7215
12.2366
21.4634
193.986
362.578
55.3311
64.616
144.91
110.749
307.546
279.358
169.827
228.525
200.535
252.742
242.292
228.16
62.4657
180.592
142.462
162.487
138.606
339.603
231.577
118.367
226.439
153.244
184.372
193
145.88
183.408
120.04
38.3057
88.3032
178.071
148.944
34.5424
337.718
142.42
311.537
330.832
450.375
185.581
252.001
291.772
232.264
237.805
209.558
44.4141
120.196
246.304
290.761
299.39
58.8284
234.755
140.895
413.574
212.873
54.6025
69.7778
132.104
450.628
26.3796
174.023
208.376
182.06
300.821
206.594
685.417
49.9738
16.3052
102.346
175.78
112.837
39.9128
71.1459
125.859
173.45
98.0542
131.584
20.5894
241.457
213.244
206.486
70.221
24.8588
521.417
354.059
259.146
165.894
217.367
67.0901
227.674
193.875
315.029
175.519
342.154
175.845
299.603
261.559
170.763
557.224
229.769
194.583
242.225
156.864
189.059
230.824
236.828
142.091
89.3388
24.5754
167.186
221.808
246.793
189.053
72.2171
923.349
227.119
26.5251
149.315
206.167
171.524
698.596
127.653
181.539
193.771
161.826
121.53
212.052
127.755
181.63
863.284
212.647
533.775
926.75
386.59
1.08823
190.476
58.6804
197.764
286.927
156.846
209.026
264.939
82.5154
79.1826
160.741
218.21
228.465
229.556
253.022
285.704
161.543
74.1802
164.847
290.701
14.6705
249.431
50.3102
353.12
312.003
97.5392
197.212
280.388
447.466
24.1518
257.98
133.489
255.387
150.424
173.031
243.409
155.537
189.786
133.765
249.793
308.537
150.662
259.251
147.298
84.453
197.255
158.522
331.644
22.69
147.315
163.854
222.527
105.848
19.249
788.818
25.654
98.4399
277.668
135.792
149.067
43.6906
118.912
245.655
297.898
50.7015
189.449
109.805
123.792
67.74
206.777
188.924
152.962
582.981
36.2264
114.975
129.057
156.14
206.346
190.067
225.519
132.646
329.861
163.263
483.624
385.138
516.892
41.4328
231.529
1.47855
22.5413
159.281
8.10785
653.228
162.322
165.798
126.453
166.38
249.413
130.808
120.146
291.117
109.719
217.268
194.737
239.757
37.1548
138.034
260.518
</DataArray>
<DataArray type='Float64' Name='area' format='ascii'>
0.00344966
0.00208336
0.00344181
0.00274978
0.0029132
0.00307946
0.00214596
0.00379063
0.0042982
0.00423143
0.0024923
0.00421958
0.00511963
0.00161166
0.00293551
0.00184646
0.00500607
0.00315488
0.00422149
0.00429509
0.00277871
0.00250429
0.00225195
0.0021346
0.00254863
0.00432814
0.00369372
0.00181241
0.00311895
0.00316348
0.00131352
0.00381399
0.00318908
0.00493766
0.00499484
0.00319134
0.00313947
0.00474221
0.00252389
0.004824
0.00326376
0.00293804
0.00166094
0.00261269
0.00396822
0.00549799
0.00340465
0.00307126
0.0055354
0.00544083
0.00266744
0.00168885
0.00519695
0.00154038
0.00117404
0.00359237
0.00205492
0.0025362
0.00248864
0.00472184
0.00474927
0.00261946
0.00242575
0.00479674
0.00301262
0.00200061
0.00335682
0.00156326
0.00255035
0.00356902
0.00534584
0.00283193
0.00491744
0.00461781
0.00173431
0.00534584
0.00266855
0.00198818
0.00410073
0.00377058
0.00289727
0.00164482
0.00179921
0.00278262
0.00485856
0.0035495
0.00484275
0.00193119
0.0047782
0.0048333
0.00243093
0.00478729
0.00270214
0.00558336
0.00512139
0.00559397
0.00417893
0.00375388
0.00253283
0.00240426
0.00404943
0.0052463
0.00252739
0.00534033
0.00229156
0.00520099
0.00516821
0.00523718
0.00396089
0.00253779
0.00283099
0.00276442
0.00205589
0.0028569
0.00251831
0.00486105
0.00278288
0.00126723
0.00208427
0.00371035
0.00288318
0.00196244
0.00139289
0.00146252
0.00246822
0.00359524
0.00401365
0.00146224
0.00254788
0.00411533
0.00363137
0.00192694
0.00236349
0.00280989
0.0047183
0.00268839
0.00163291
0.0044101
0.00380574
0.0012584
0.00252612
0.00246454
0.00215805
0.00401477
0.00540514
0.00162635
0.00268237
0.00290879
0.00249214
0.00364221
0.00310374
0.00253736
0.00118412
0.00126504
0.00305505
0.00376801
0.00232646
0.00132138
0.00342121
0.0037879
0.00236576
0.0040168
0.0033628
0.0046331
0.00483806
0.00349249
0.00262203
0.00136159
0.00317992
0.00401854
0.00326738
0.00321465
0.00367573
0.00337075
0.0037639
0.00192234
0.00317286
0.00258709
0.00468581
0.00279679
0.00261946
0.00292024
0.00478175
0.00142647
0.00120749
0.00124051
0.00202198
0.00460386
0.00189074
0.00118571
0.00118412
0.0029207
0.00249573
0.00129882
0.00282265
0.00301566
0.00360541
0.00211336
0.00118897
0.00297456
0.00277163
0.00452366
0.00452366
0.00276726
0.00268786
0.0012494
0.00224416
0.00168512
0.00231863
0.00405077
0.00331926
0.00243065
0.00240767
0.00153178
0.00203346
0.00181829
0.00314055
0.00259332
0.00259274
0.00242883
0.00236691
0.00214798
0.00153319
0.0025667
0.00139898
0.00383742
0.00460886
0.00264189
0.00257999
0.00239069
0.00405766
0.00141556
0.00247442
0.00322327
0.00229301
0.00126186
0.00241003
0.00223274
0.00338544
0.00362819
0.00229246
0.00384703
0.00248375
0.00112172
0.00280487
0.00120531
0.00237455
0.00240211
0.00375044
0.0023367
0.00124033
0.00248693
0.00259065
0.00189938
0.00249242
0.00241658
0.00266056
0.00100981
0.00195081
0.00412003
0.00161514
0.00388066
0.00363101
0.00247612
0.00401756
0.00304382
0.00123457
0.00309203
0.00299155
0.00261105
0.00376608
0.00233939
0.00254756
0.00476869
0.00378661
0.00359033
0.00212466
0.00323221
0.00260398
0.00369558
0.0036748
0.00490143
0.00238701
0.00339882
0.00436271
0.00228224
0.00368581
0.00231211
0.00108333
0.00115574
0.0021802
0.00228934
0.00197528
0.00368072
0.00263741
0.00263374
0.00247165
0.00221544
0.00310802
0.00312022
0.00273073
0.0019224
0.00336244
0.00296166
0.00377732
0.00194797
0.00279211
0.00112866
0.00247701
0.00332027
0.00147063
</DataArray>
</CellData>
<Cells>
<DataArray type='Int32' Name='connectivity' format='ascii'>
15 16 113
57 63 128
16 50 113
117 60 171
61 119 170
102 113 148
68 65 116
120 112 153
131 121 153
96 49 157
123 57 128
118 142 151
49 96 147
63 57 163
113 114 148
115 165 175
121 53 153
144 103 166
103 76 139
103 104 166
58 15 113
112 120 172
123 128 129
84 68 116
165 151 175
135 118 151
112 131 153
65 64 116
38 117 171
119 29 170
9 46 64
119 61 120
113 50 114
59 125 133
53 121 136
29 3 170
1 38 171
93 103 139
70 84 132
27 53 136
76 103 144
72 70 132
64 46 116
102 58 113
133 125 179
117 52 118
142 118 150
107 108 109
39 52 117
53 28 119
109 110 111
46 99 116
49 42 124
98 62 100
10 9 64
104 106 107
67 79 129
109 111 138
47 32 122
38 39 117
28 29 119
14 15 58
111 137 138
93 95 103
109 108 110
4 14 161
107 106 108
30 5 163
31 30 57
139 76 143
39 40 52
31 57 122
27 28 53
103 95 104
127 66 128
41 42 49
80 77 83
128 66 129
118 52 150
88 139 143
77 72 132
58 102 177
132 164 173
122 57 123
130 141 160
130 160 176
43 54 124
66 67 129
42 43 124
52 40 147
137 111 154
59 24 125
16 17 50
25 26 51
41 49 147
25 51 125
90 92 93
104 105 106
32 31 122
123 137 154
93 94 95
54 44 130
33 32 47
44 45 130
123 129 137
24 25 125
43 44 54
23 24 59
90 93 139
85 80 140
60 117 159
83 77 132
70 68 84
75 72 77
33 47 126
26 27 136
81 80 85
46 8 98
101 102 173
110 108 112
78 77 80
114 50 115
161 58 177
48 66 127
47 122 154
106 121 131
104 95 105
46 98 99
34 33 126
93 92 94
82 87 88
14 58 161
83 132 173
151 85 175
22 23 141
126 156 158
57 30 163
106 105 121
88 89 90
11 48 127
126 47 156
50 17 149
129 79 137
90 91 92
51 26 136
63 127 128