<VTKFile type='UnstructuredGrid' version='0.1' byte_order='BigEndian'>
<UnstructuredGrid>
<Piece NumberOfPoints='716' NumberOfCells='1333'>
<Points>
<DataArray type='Float64' NumberOfComponents='3' Format='ascii'>
0 0 0
0 1 0
1 1 0
1 0 0
0 0.3 0
0.3 0 0
0.0247738 0.298975 0
0.0493784 0.295908 0
0.0736456 0.29082 0
0.0974098 0.283745 0
0.120509 0.274732 0
0.142784 0.263842 0
0.164084 0.25115 0
0.184264 0.236742 0
0.203184 0.220717 0
0.220717 0.203184 0
0.236742 0.184264 0
0.25115 0.164084 0
0.263842 0.142784 0
0.274732 0.120509 0
0.283745 0.0974098 0
0.29082 0.0736456 0
0.295908 0.0493784 0
0.298975 0.0247738 0
0 0.336842 0
0 0.373684 0
0 0.410526 0
0 0.447368 0
0 0.484211 0
0 0.521053 0
0 0.557895 0
0 0.594737 0
0 0.631579 0
0 0.668421 0
0 0.705263 0
0 0.742105 0
0 0.778947 0
0 0.815789 0
0 0.852632 0
0 0.889474 0
0 0.926316 0
0 0.963158 0
1 0.947368 0
1 0.894737 0
1 0.842105 0
1 0.789474 0
1 0.736842 0
1 0.684211 0
1 0.631579 0
1 0.578947 0
1 0.526316 0
1 0.473684 0
1 0.421053 0
1 0.368421 0
1 0.315789 0
1 0.263158 0
1 0.210526 0
1 0.157895 0
1 0.105263 0
1 0.0526316 0
0.336842 0 0
0.373684 0 0
0.410526 0 0
0.447368 0 0
0.484211 0 0
0.521053 0 0
0.557895 0 0
0.594737 0 0
0.631579 0 0
0.668421 0 0
0.705263 0 0
0.742105 0 0
0.778947 0 0
0.815789 0 0
0.852632 0 0
0.889474 0 0
0.926316 0 0
0.963158 0 0
0.0526316 1 0
0.105263 1 0
0.157895 1 0
0.210526 1 0
0.263158 1 0
0.315789 1 0
0.368421 1 0
0.421053 1 0
0.473684 1 0
0.526316 1 0
0.578947 1 0
0.631579 1 0
0.684211 1 0
0.736842 1 0
0.789474 1 0
0.842105 1 0
0.894737 1 0
0.947368 1 0
0.187098 0.261287 0
0.261422 0.186652 0
0.571692 0.0352847 0
0.0305233 0.576628 0
0.954309 0.500857 0
0.50583 0.95293 0
0.0340667 0.724374 0
0.723684 0.0319062 0
0.119434 0.300836 0
0.299128 0.116753 0
0.953526 0.338727 0
0.95145 0.648424 0
0.656895 0.954985 0
0.3437 0.954788 0
0.465789 0.0319062 0
0.0298294 0.465557 0
0.0319062 0.834211 0
0.833392 0.0325723 0
0.958333 0.817783 0
0.227135 0.227135 0
0.956031 0.180899 0
0.18016 0.957786 0
0.0351986 0.394722 0
0.390699 0.0334376 0
0.821186 0.951492 0
0.648763 0.033592 0
0.0294366 0.651244 0
0.0273919 0.908052 0
0.907667 0.0265366 0
0.314826 0.0655429 0
0.0659186 0.31438 0
0.95561 0.918997 0
0.0746242 0.959878 0
0.957471 0.0742493 0
0.16552 0.275699 0
0.189683 0.286994 0
0.168392 0.302341 0
0.192762 0.313742 0
0.170113 0.329462 0
0.19574 0.341361 0
0.218536 0.324689 0
0.222265 0.35272 0
0.245925 0.335638 0
0.249565 0.365097 0
0.274054 0.347304 0
0.277491 0.378367 0
0.303428 0.359458 0
0.307091 0.391806 0
0.333865 0.372096 0
0.337658 0.40562 0
0.365274 0.385165 0
0.369267 0.419897 0
0.397758 0.398888 0
0.401885 0.434606 0
0.372597 0.455977 0
0.406048 0.471205 0
0.429137 0.410028 0
0.375351 0.493532 0
0.410733 0.508958 0
0.391723 0.365793 0
0.378782 0.531882 0
0.414812 0.547844 0
0.447001 0.52437 0
0.451344 0.564325 0
0.484157 0.539987 0
0.250382 0.393893 0
0.382746 0.570983 0
0.488718 0.581365 0
0.522749 0.556032 0
0.527223 0.598356 0
0.562563 0.571453 0
0.346475 0.554667 0
0.350323 0.594178 0
0.566132 0.61607 0
0.556912 0.529214 0
0.602962 0.588094 0
0.493096 0.622477 0
0.607128 0.634384 0
0.313802 0.577691 0
0.317659 0.617494 0
0.643853 0.607094 0
0.648862 0.653055 0
0.280886 0.600894 0
0.284776 0.640759 0
0.32199 0.658183 0
0.28841 0.682232 0
0.326423 0.699989 0
0.172673 0.357926 0
0.610752 0.680485 0
0.653885 0.699192 0
0.300191 0.328834 0
0.685825 0.625843 0
0.680586 0.579532 0
0.291743 0.724944 0
0.248229 0.623726 0
0.244515 0.584211 0
0.615502 0.727039 0
0.331036 0.743217 0
0.723226 0.598145 0
0.717796 0.55156 0
0.21238 0.606842 0
0.209185 0.567883 0
0.659475 0.746262 0
0.295166 0.768577 0
0.255699 0.750006 0
0.761283 0.570076 0
0.755451 0.523174 0
0.711913 0.504718 0
0.749347 0.476666 0
0.706943 0.45816 0
0.743471 0.430678 0
0.701426 0.41302 0
0.737228 0.385747 0
0.695966 0.368031 0
0.731183 0.341346 0
0.690903 0.324281 0
0.725785 0.297696 0
0.685894 0.281045 0
0.651572 0.307031 0
0.646874 0.264628 0
0.613668 0.289517 0
0.60903 0.248867 0
0.720383 0.254578 0
0.577544 0.271035 0
0.571422 0.235144 0
0.541603 0.254952 0
0.535594 0.219725 0
0.506325 0.239984 0
0.500695 0.205739 0
0.472377 0.224801 0
0.574559 0.313417 0
0.467275 0.190241 0
0.439086 0.210796 0
0.760497 0.271314 0
0.75511 0.22796 0
0.600184 0.205428 0
0.766867 0.617371 0
0.434581 0.176574 0
0.406772 0.197034 0
0.500083 0.169974 0
0.240375 0.545862 0
0.205655 0.529798 0
0.620509 0.774384 0
0.576797 0.754617 0
0.509859 0.27841 0
0.410998 0.230755 0
0.380155 0.217513 0
0.403141 0.163675 0
0.335629 0.78753 0
0.372028 0.761311 0
0.375605 0.804628 0
0.175229 0.551668 0
0.171605 0.514805 0
0.778998 0.403447 0
0.308065 0.429075 0
0.258804 0.793455 0
0.218977 0.774508 0
0.795096 0.24463 0
0.789152 0.201378 0
0.74956 0.185108 0
0.383767 0.249993 0
0.354309 0.23623 0
0.664488 0.794135 0
0.703983 0.765488 0
0.805519 0.588765 0
0.665587 0.439836 0
0.413755 0.779104 0
0.581528 0.802403 0
0.709438 0.814152 0
0.74943 0.784998 0
0.811113 0.636916 0
0.351103 0.204372 0
0.430097 0.142877 0
0.362516 0.674447 0
0.793012 0.494552 0
0.411734 0.2645 0
0.781995 0.159218 0
0.217412 0.731092 0
0.180492 0.755884 0
0.182956 0.798695 0
0.178718 0.71301 0
0.140941 0.536208 0
0.142253 0.574273 0
0.139019 0.499479 0
0.168009 0.478924 0
0.136376 0.464023 0
0.398942 0.130326 0
0.234795 0.508568 0
0.417863 0.827557 0
0.239992 0.308524 0
0.144803 0.780067 0
0.147344 0.822571 0
0.478961 0.499716 0
0.801336 0.288794 0
0.837165 0.261268 0
0.743871 0.143206 0
0.822802 0.174499 0
0.711253 0.168744 0
0.108295 0.51961 0
0.70598 0.128077 0
0.325729 0.223178 0
0.164359 0.444786 0
0.13216 0.429753 0
0.355598 0.265829 0
0.186422 0.842287 0
0.843275 0.306692 0
0.755407 0.833198 0
0.795587 0.804652 0
0.339487 0.833182 0
0.537359 0.783356 0
0.542087 0.830733 0
0.532355 0.73763 0
0.425416 0.109607 0
0.774889 0.119651 0
0.32304 0.192619 0
0.146453 0.345488 0
0.586581 0.850821 0
0.772083 0.665073 0
0.819475 0.682468 0
0.8505 0.607798 0
0.672684 0.153902 0
0.149483 0.866766 0
0.880397 0.278452 0
0.373098 0.150532 0
0.368869 0.118427 0
0.308331 0.53818 0
0.668536 0.113425 0
0.635977 0.138396 0
0.195864 0.45875 0
0.105138 0.449162 0
0.101149 0.414114 0
0.191141 0.420253 0
0.408801 0.734319 0
0.632651 0.0992353 0
0.601746 0.121954 0
0.712569 0.865869 0
0.844393 0.558894 0
0.890218 0.578149 0
0.341532 0.477525 0
0.109432 0.803381 0
0.107014 0.762096 0
0.45699 0.12216 0
0.874228 0.230681 0
0.80315 0.86213 0
0.839572 0.826578 0
0.210413 0.271003 0
0.388268 0.609717 0
0.676136 0.196701 0
0.215176 0.646273 0
0.179803 0.629281 0
0.847663 0.876049 0
0.836492 0.775525 0
0.15028 0.376341 0
0.122624 0.362425 0
0.450511 0.751534 0
0.445928 0.706881 0
0.548145 0.87932 0
0.498679 0.863017 0
0.342243 0.137639 0
0.917613 0.251585 0
0.0710667 0.782618 0
0.299523 0.211692 0
0.301882 0.240056 0
0.275192 0.227743 0
0.277591 0.255015 0
0.302762 0.269347 0
0.591512 0.899302 0
0.339859 0.105914 0
0.361389 0.0833421 0
0.452406 0.0887881 0
0.482669 0.102886 0
0.223129 0.438949 0
0.629169 0.867861 0
0.881695 0.531275 0
0.0768501 0.432985 0
0.702912 0.0903569 0
0.80629 0.33452 0
0.849143 0.352879 0
0.279911 0.285579 0
0.419149 0.0788166 0
0.742448 0.736938 0
0.598008 0.0861241 0
0.567335 0.107566 0
0.571769 0.144286 0
0.539887 0.128746 0
0.534485 0.0905206 0
0.0789388 0.46644 0
0.190882 0.885367 0
0.227435 0.86168 0
0.232627 0.905931 0
0.269255 0.881721 0
0.270291 0.921437 0
0.882742 0.798595 0
0.875529 0.747876 0
0.292078 0.18321 0
0.541935 0.166464 0
0.254465 0.269992 0
0.318268 0.165154 0
0.314665 0.908457 0
0.896682 0.627898 0
0.175817 0.387247 0
0.93517 0.593434 0
0.904782 0.682374 0
0.0721576 0.400725 0
0.920893 0.760606 0
0.115009 0.330452 0
0.0987209 0.351818 0
0.291885 0.155312 0
0.151818 0.91531 0
0.111007 0.888507 0
0.271126 0.522772 0
0.265979 0.486581 0
0.551561 0.927099 0
0.249783 0.209842 0
0.0696386 0.743088 0
0.103132 0.722005 0
0.956648 0.129915 0
0.913398 0.107238 0
0.913355 0.154263 0
0.874891 0.129159 0
0.873747 0.0846072 0
0.837727 0.104378 0
0.868945 0.177454 0
0.182458 0.668644 0
0.146732 0.651524 0
0.950696 0.713956 0
0.0715684 0.821657 0
0.216702 0.688193 0
0.0930879 0.308978 0
0.143489 0.288938 0
0.0409269 0.320117 0
0.0588205 0.342189 0
0.317632 0.0393258 0
0.341313 0.0543852 0
0.311831 0.094257 0
0.481668 0.0665705 0
0.427957 0.0313346 0
0.0284275 0.43062 0
0.143815 0.316253 0
0.376395 0.184855 0
0.923277 0.297708 0
0.144704 0.612599 0
0.113155 0.632653 0
0.109925 0.596089 0
0.0814631 0.616002 0
0.0880198 0.650769 0
0.0808443 0.577668 0
0.109781 0.556803 0
0.0799906 0.538174 0
0.65996 0.395823 0
0.624984 0.422697 0
0.630076 0.465789 0
0.591493 0.445823 0
0.586539 0.404355 0
0.553286 0.42782 0
0.547011 0.389541 0
0.514603 0.413658 0
0.510062 0.374034 0
0.519379 0.453948 0
0.481566 0.437902 0
0.542236 0.348701 0
0.504877 0.336316 0
0.476177 0.35855 0
0.46956 0.322181 0
0.439946 0.343609 0
0.435527 0.305849 0
0.467185 0.284637 0
0.589393 0.490285 0
0.634425 0.508911 0
0.529576 0.311268 0
0.583648 0.358173 0
0.41057 0.324486 0
0.655894 0.351181 0
0.478919 0.398064 0
0.680536 0.238826 0
0.141628 0.738382 0
0.139035 0.691695 0
0.404319 0.690672 0
0.436871 0.66414 0
0.477327 0.679377 0
0.675564 0.53164 0
0.0931938 0.378727 0
0.227016 0.472229 0
0.256607 0.45196 0
0.289605 0.46052 0
0.305519 0.494326 0
0.667798 0.0698804 0
0.502072 0.0320898 0
0.0292997 0.50181 0
0.0294004 0.538604 0
0.0665619 0.706352 0
0.0341398 0.761417 0
0.738791 0.103021 0
0.77497 0.0751643 0
0.571907 0.708342 0
0.524088 0.68664 0
0.616806 0.332717 0
0.598322 0.951258 0
0.954476 0.394095 0
0.910424 0.368421 0
0.910322 0.419427 0
0.954676 0.446429 0
0.912081 0.466966 0
0.86865 0.442113 0
0.394745 0.955212 0
0.368751 0.91207 0
0.420811 0.911509 0
0.447992 0.95478 0
0.47242 0.909605 0
0.445148 0.869149 0
0.348372 0.170856 0
0.567621 0.0720181 0
0.63887 0.560022 0
0.535902 0.0316336 0
0.642026 0.223456 0
0.63562 0.182859 0
0.12907 0.960149 0
0.395397 0.872599 0
0.207435 0.244911 0
0.230385 0.255117 0
0.393621 0.0979489 0
0.389461 0.0667519 0
0.276506 0.561602 0
0.599637 0.53857 0
0.542116 0.488151 0
0.487106 0.723391 0
0.568517 0.660994 0
0.342384 0.516029 0
0.611854 0.0311236 0
0.0282806 0.614327 0
0.71605 0.211316 0
0.620704 0.378432 0
0.576394 0.176269 0
0.710484 0.954722 0
0.686595 0.913082 0
0.764207 0.954127 0
0.786457 0.910697 0
0.111013 0.84484 0
0.914799 0.204075 0
0.95504 0.86843 0
0.9022 0.888789 0
0.913883 0.950741 0
0.913274 0.838548 0
0.515204 0.516144 0
0.222139 0.407665 0
0.359652 0.352746 0
0.789489 0.756672 0
0.686532 0.0321521 0
0.0316143 0.688652 0
0.0294508 0.351237 0
0.498767 0.812758 0
0.27127 0.314551 0
0.697375 0.718127 0
0.177689 0.590214 0
0.737265 0.912387 0
0.836015 0.512689 0
0.329717 0.33953 0
0.354954 0.321687 0
0.32731 0.310982 0
0.441345 0.486965 0
0.799255 0.541496 0
0.445337 0.24998 0
0.758862 0.0341789 0
0.795787 0.0355747 0
0.812761 0.0715328 0
0.4557 0.603947 0
0.423774 0.376148 0
0.107852 0.483128 0
0.670751 0.484842 0
0.728743 0.644552 0
0.78586 0.448555 0
0.823825 0.422058 0
0.829677 0.217396 0
0.857896 0.655997 0
0.0729489 0.863216 0
0.251308 0.664576 0
0.926053 0.545192 0
0.605977 0.158865 0
0.691372 0.671661 0
0.299072 0.812891 0
0.625391 0.821859 0
0.199697 0.493686 0
0.367521 0.717326 0
0.382064 0.280572 0
0.886179 0.324591 0
0.235298 0.95443 0
0.213864 0.297875 0
0.0806359 0.501534 0
0.357246 0.633722 0
0.126499 0.3958 0
0.419478 0.586317 0
0.254189 0.70648 0
0.461118 0.155536 0
0.765997 0.315383 0
0.359252 0.0296033 0
0.441303 0.447039 0
0.328961 0.252818 0
0.341367 0.440624 0
0.314023 0.138888 0
0.198625 0.368716 0
0.867078 0.396265 0
0.27839 0.409169 0
0.0649204 0.909052 0
0.22296 0.817887 0
0.0580398 0.372687 0
0.0321223 0.94231 0
0.943632 0.0321029 0
0.0321548 0.872368 0
0.872815 0.0395016 0
0.514175 0.0641941 0
0.456633 0.795573 0
0.668106 0.840222 0
0.487693 0.135309 0
0.531093 0.640042 0
0.0347802 0.799107 0
0.158117 0.411188 0
0.251758 0.238142 0
0.771565 0.359085 0
0.395536 0.648964 0
0.86476 0.923037 0
0.263479 0.837067 0
0.626772 0.0626403 0
0.829649 0.467373 0
0.493789 0.767374 0
0.0959893 0.684971 0
0.736096 0.0660964 0
0.734732 0.690469 0
0.442731 0.0582057 0
0.81615 0.378042 0
0.827505 0.728431 0
0.958619 0.229568 0
0.333633 0.0812134 0
0.780956 0.710009 0
0.305426 0.858 0
0.638345 0.910657 0
0.327444 0.282408 0
0.272075 0.166409 0
0.809814 0.133637 0
0.34949 0.870822 0
0.223672 0.380273 0
0.910113 0.0630387 0
0.233318 0.282506 0
0.276211 0.204549 0
0.86603 0.703203 0
0.480217 0.255562 0
0.249455 0.424282 0
0.868421 0.964894 0
0.0840428 0.333001 0
0.874081 0.487985 0
0.515327 0.906394 0
0.511071 0.115413 0
0.958839 0.282756 0
0.846035 0.0639248 0
0.467205 0.834937 0
0.0553951 0.5582 0
0.705263 0.0575339 0
0.76108 0.876349 0
0.299262 0.302249 0
0.478147 0.468222 0
0.104658 0.927922 0
0.425738 0.623989 0
0.298303 0.959912 0
0.0541011 0.483282 0
0.962444 0.766646 0
0.0548038 0.520267 0
0.842484 0.145748 0
0.595189 0.0574382 0
0.409938 0.293912 0
0.382063 0.309452 0
0.31792 0.459918 0
0.496212 0.306563 0
0.321417 0.11869 0
0.318068 0.0180648 0
0.0173559 0.320573 0
0.367757 0.0536835 0
0.0529377 0.448768 0
0.410612 0.0523104 0
0.910993 0.722074 0
0.437531 0.278208 0
0.353724 0.294603 0
0.277734 0.435935 0
0.961471 0.961471 0
0.515614 0.143947 0
0.0608211 0.668899 0
0.552518 0.968553 0
0.506761 0.485236 0
0.289394 0.134394 0
0.967892 0.55471 0
0.914638 0.507223 0
0.528083 0.193641 0
0.454015 0.381142 0
0.202279 0.392831 0
0.464444 0.640404 0
0.804361 0.102037 0
0.0543726 0.631979 0
0.825866 0.906507 0
0.975346 0.0302308 0
0.0318756 0.973069 0
0.118481 0.662595 0
0.549542 0.284795 0
0.385781 0.337638 0
0.258184 0.293184 0
0.0551465 0.595801 0
0.560489 0.202803 0
0.458228 0.418232 0
0.198455 0.921612 0
0.0536038 0.42082 0
0.500529 0.654368 0
0.0775075 0.356195 0
0.374415 0.841202 0
0.506069 0.0885247 0
0.875602 0.846232 0
0.543258 0.0584819 0
0.334621 0.0282758 0
0.921889 0.800035 0
0.973261 0.605263 0
0.413767 0.350889 0
0.919001 0.332282 0
0.667262 0.878517 0
0.561375 0.459345 0
</DataArray>
</Points>
<PointData Vectors='Velocity'>
<DataArray type='Float64' Name='Ux' Format='ascii'>
0
0
105.053
-171.312
0
-155.849
-10.1106
-19.111
-27.8961
-36.3995
-44.7431
-53.0109
-61.2079
-69.3346
-77.4015
-85.4567
-93.4331
-101.429
-109.389
-117.322
-125.176
-132.963
-140.666
-148.279
0
0
0
0
0
0
0
0
0
0
0
0
0
0
0
0
0
0
86.128
69.4679
54.1462
39.8082
26.2517
13.2061
0.540993
-11.8919
-24.2856
-36.7812
-49.4534
-62.418
-75.7765
-89.5891
-103.954
-118.964
-134.786
-151.783
-155.812
-155.806
-155.949
-156.276
-156.8
-157.5
-158.345
-159.299
-160.34
-161.431
-162.564
-163.72
-164.88
-166.041
-167.244
-168.397
-169.649
-170.755
15.3901
26.7375
36.8036
45.8918
54.1114
61.5775
68.2292
74.1523
79.3744
83.9341
87.9702
91.3792
94.3167
96.8376
99.0024
100.883
102.699
104.192
-59.6132
-93.1128
-148.551
-0.676033
-30.1542
69.3459
1.3892
-153.545
-35.3698
-118.674
-69.5364
4.46917
79.4717
54.4805
-147.312
-2.43979
2.92321
-156.165
47.0998
-76.1298
-111.926
33.0617
-4.98626
-145.94
84.7533
-151.021
0.290189
3.82631
-159.862
-135.589
-19.5366
76.5766
14.6778
-144.257
-51.5884
-50.7966
-43.0716
-43.0467
-35.8129
-36.3078
-43.2201
-36.7992
-43.4384
-36.9049
-43.3703
-36.6802
-43.1647
-36.3544
-42.7406
-35.8051
-42.0968
-34.9676
-41.1602
-33.8509
-28.0753
-26.8383
-40.4977
-21.3805
-20.0228
-48.2759
-14.9681
-13.2865
-18.3641
-11.1693
-16.3604
-31.0519
-8.71856
-8.61989
-13.9849
-5.76551
-11.4543
-10.4096
-4.6445
-2.46575
-20.0079
-8.40912
-1.00026
1.23255
-6.36045
-1.11583
-4.61754
5.26738
-2.90164
1.8067
4.25682
6.78421
9.93199
-29.6536
10.9566
15.3911
-50.356
-0.647663
-10.7811
12.1126
-0.13804
-4.26003
21.0435
16.1052
-6.87917
-17.2368
-1.60831
-5.14965
26.0726
17.9103
13.5513
-13.354
-23.9374
-27.6972
-34.5299
-38.2681
-45.2054
-48.766
-55.9072
-59.5589
-66.8141
-70.4243
-77.9111
-81.5421
-73.9856
-85.0293
-77.5437
-88.2798
-89.2462
-81.3353
-90.9248
-84.4579
-94.0197
-87.2327
-96.7392
-90.1503
-70.105
-100.004
-92.7863
-85.374
-97.027
-100.042
-2.6688
-102.875
-95.5328
-107.127
-8.33987
-8.74077
31.7317
26.2632
-76.8247
-85.5843
-88.0232
-105.718
22.8995
20.6104
28.0322
-5.61806
-8.62367
-52.1507
-29.1024
18.9169
14.149
-92.9636
-104.842
-108.92
-78.4413
-80.8733
37.4306
31.3077
-9.28639
-41.816
25.508
36.9858
43.3917
36.7749
1.76266
-90.719
-113.03
7.02956
-30.803
-75.8357
-116.789
9.77638
10.1305
14.0014
6.65311
-5.57953
-3.09165
-8.16076
-11.7975
-10.9202
-116.055
-12.433
34.7058
-49.988
9.74508
13.085
-24.0508
-81.2404
-88.8728
-120.87
-112.825
-112.945
-5.21268
-124.59
-83.3448
-15.2003
-13.8688
-72.0697
18.5997
-76.966
49.293
42.3954
30.4927
31.2838
41.8669
21.6236
-123.159
-128.287
-93.3015
-28.5861
48.5116
8.24779
12.405
-5.01548
-116.434
17.1276
-84.6306
-108.909
-119.138
-11.6486
-128.072
-120.076
-16.0697
-9.55652
-12.1011
-20.8878
17.5551
-131.385
-124.017
56.9134
-16.2738
-11.9566
-22.5469
8.57536
6.25698
-120.12
-97.4352
57.9641
48.7129
-58.5547
-2.68299
-104.342
1.9441
0.358318
62.5772
35.2666
-23.2124
-21.6468
21.9738
13.808
53.5233
46.9479
-112.306
-92.0513
4.78509
-85.7311
-76.4239
-78.8488
-69.8511
-67.2694
60.8219
-122.705
-130.224
-130.122
-126.588
-20.9622
54.5316
-22.7963
-7.99926
-135.605
-69.5015
-65.2625
-60.508
-132.495
24.9459
-134.373
-127.347
-116.758
-120.427
-131.522
-6.27499
24.1222
25.0474
32.0135
32.3085
39.2028
41.5434
28.4832
-95.3317
-109.468
-63.1018
-102.438
41.7073
-0.383792
-24.5157
-8.47386
12.5157
-9.70207
31.8996
-26.6935
-19.5977
-105.198
22.6661
14.3091
-12.3228
-17.0098
65.7892
-83.929
3.44292
4.20667
-126.874
-133.547
-119.36
-126.59
-140.311
-133.771
-112.333
3.37409
1.64308
20.2932
6.23157
5.76767
-27.5265
-43.5827
-11.6873
-13.1403
-143.807
-139.182
-126.284
-137.396
-146.935
-3.06172
-35.261
-98.0514
-79.8845
-0.735047
0.365303
-1.34703
-0.320369
0.928859
-1.66791
-3.28163
-3.13117
-52.0752
-44.9199
-35.1846
-38.7775
-48.1694
-41.7483
-50.3655
-43.5719
-52.5951
-34.8489
-36.8936
-60.044
-61.5854
-54.763
-63.4685
-56.511
-65.9023
-73.1947
-28.907
-25.6984
-68.9898
-59.1574
-59.627
-62.8886
-45.6148
-92.7682
6.81554
3.91396
10.2329
6.25176
9.37187
-21.2619
-14.808
-16.5663
-21.5347
-22.4023
-17.9672
-140.83
-147.921
-1.74427
-1.17723
2.23221
1.94293
-132.596
-141.66
16.3786
11.3497
-66.5053
75.1748
-55.7521
-61.8149
-49.3299
-43.0729
-37.9873
-43.6453
60.0511
47.8405
52.3646
65.0194
55.9978
44.9149
-101.499
-137.753
-14.676
-148.769
-96.123
-107.333
24.9778
42.0441
-67.8566
-66.0188
-126.108
-135.763
-7.57599
-18.7706
-28.2443
17.7674
6.61968
-16.2426
-150.766
-0.159283
-101.021
-55.3154
-107.663
81.8808
68.9383
83.7858
71.5141
11.1795
-105.085
61.2898
66.8712
86.3722
52.5427
-21.7756
-25.8721
-49.1769
30.1688
-152.459
0.811518
-5.90062
35.9708
-51.4506
20.0914
-2.60956
70.5565
-26.8944
-50.1277
-56.5857
-57.2914
-25.2585
-20.0581
-81.7116
-153.796
-154.309
-143.518
-4.16368
-47.8237
-7.38838
-31.6265
3.51045
-41.4676
-48.1115
-100.774
6.21039
8.06559
4.14528
-19.6901
-113.445
9.51178
24.3649
43.0127
-12.2472
13.5575
-69.5528
-72.6898
40.6774
-50.2304
-4.69294
1.04834
-17.2341
-6.81837
8.66462
-110.149
-73.9241
-146.9
-33.2398
-74.1972
-29.159
-111.3
-30.6581
-54.6789
-30.5983
9.17315
19.1697
-9.81374
5.53517
-158.519
3.64115
-154.812
-138.79
30.5801
48.925
-117.021
2.31936
2.5803
-18.8361
-73.6727
-62.9395
3.46779
76.8908
25.0379
-141.945
-37.4119
26.4924
2.37674
-143.565
13.9887
-139.147
-58.7291
23.4643
-98.3238
-130.652
18.8014
31.8479
66.1657
-65.283
-100.845
-124.634
37.9619
-31.0877
-147.643
-57.0878
-87.1123
17.4614
-81.7941
-25.4779
90.2159
-20.1043
-32.8526
58.1968
-123.588
-84.0342
-146.486
39.0665
-1.66319
-145.398
61.0833
-57.3667
-30.3909
16.9483
-0.555983
50.1996
-3.75498
33.604
-2.66429
-121.392
-142.679
-67.6006
-61.6954
-24.2622
-68.7896
-118.24
-150.335
-4.8803
-139.574
-4.91021
-140.437
22.2005
-73.4423
-63.7569
-25.7118
90.6071
-115.284
1.08174
77.0493
-27.8391
-112.534
-17.5604
-28.5336
-101.19
-48.3023
-26.4824
2.26706
-134.035
0.123512
71.1703
-159.524
6.91128
1.86569
-76.7062
-54.7065
-56.2826
-0.718745
-99.6063
-40.1594
30.0854
-6.19619
4.95576
-15.106
34.4304
-131.423
54.4444
-141.126
-147.239
42.1552
-5.69456
-53.2263
-70.9709
58.7935
-34.9728
</DataArray>
<DataArray type='Float64' Name='Uy' Format='ascii'>
0
0
-273.889
-279.925
0
-62.3945
-4.28673
-7.40754
-10.7749
-14.4056
-18.4096
-22.6586
-27.0272
-31.4575
-35.8575
-40.16
-44.2757
-48.102
-51.6309
-54.6903
-57.3294
-59.4728
-61.069
-62.0563
0
0
0
0
0
0
0
0
0
0
0
0
0
0
0
0
0
0
-272.285
-270.388
-268.582
-266.974
-265.654
-264.76
-264.26
-264.102
-264.391
-265.041
-266.016
-267.263
-268.729
-270.377
-272.141
-273.976
-275.885
-277.836
-73.6364
-84.6523
-95.4006
-105.954
-116.397
-126.798
-137.216
-147.71
-158.307
-169.037
-179.922
-190.982
-202.242
-213.733
-225.547
-237.752
-250.537
-264.143
-10.2977
-19.1766
-28.7217
-39.2025
-50.6305
-63.0115
-76.1612
-90.0608
-104.556
-119.559
-135.112
-150.888
-166.995
-183.349
-199.963
-216.894
-234.449
-252.88
-32.4255
-51.7422
-140.864
-2.34856
-251.273
-112.515
-2.92503
-185.147
-17.4245
-62.375
-253.792
-249.939
-157.903
-68.2534
-111.035
-1.93538
-2.90377
-219.054
-254.167
-42.5304
-258.359
-30.9363
-2.17083
-89.5966
-209.669
-163.008
-2.3892
-2.89392
-243.77
-66.9805
-8.23163
-255.103
-11.4884
-261.151
-27.3478
-32.7447
-27.4695
-32.8212
-27.0715
-32.6833
-38.7998
-38.805
-45.3894
-45.307
-52.3072
-52.0925
-59.6696
-59.4735
-67.4439
-67.2704
-75.6125
-75.5125
-84.2112
-84.1887
-75.2792
-84.2646
-92.7467
-74.9757
-84.5981
-83.6749
-75.0104
-84.8882
-94.7108
-95.1607
-105.315
-44.537
-75.3618
-105.915
-116.568
-117.244
-128.424
-65.6208
-66.0558
-128.904
-127.439
-140.651
-106.645
-141.4
-56.5165
-57.0856
-153.177
-154.305
-47.8145
-48.5283
-57.9678
-49.3649
-59.0844
-26.7737
-142.156
-155.592
-59.9256
-166.215
-165.054
-50.3417
-39.7388
-39.107
-143.444
-60.4842
-178.338
-177.132
-31.6458
-31.1511
-157.218
-51.5913
-41.8464
-190.688
-189.359
-175.896
-188.032
-175.034
-186.841
-174.038
-185.557
-173.089
-184.339
-172.241
-183.289
-171.377
-160.628
-159.929
-149.659
-149.03
-182.192
-139.418
-138.348
-129.396
-128.401
-119.676
-118.803
-110.48
-137.643
-109.767
-101.514
-194.309
-193.126
-147.152
-192.046
-100.91
-92.8234
-119.273
-38.5231
-30.7102
-144.997
-131.428
-119.775
-93.2672
-85.0406
-92.3557
-62.1398
-71.5603
-73.0145
-24.0377
-23.542
-198.318
-58.4429
-43.1529
-33.829
-205.364
-203.932
-191.824
-85.2514
-77.4851
-158.828
-171.314
-204.547
-162.505
-83.2775
-133.046
-173.112
-185.84
-206.014
-77.2397
-100.144
-68.7366
-201.528
-92.5817
-202.038
-33.0066
-25.5426
-26.6104
-24.8179
-17.4678
-17.6454
-17.2526
-23.1543
-16.9973
-91.5433
-37.7449
-85.0021
-44.748
-19.0298
-20.1182
-104.677
-206.809
-218.412
-190.424
-214.754
-180.336
-11.884
-179.1
-69.8736
-22.8526
-16.5572
-77.0622
-28.1721
-219.748
-187.842
-200.741
-63.8854
-119.487
-121.273
-117.843
-99.169
-200.114
-69.5473
-21.3806
-134.976
-193.404
-208.505
-218.649
-168.977
-21.4871
-231.892
-84.0763
-83.0683
-55.7182
-168.125
-158.373
-29.5601
-11.5149
-11.0988
-29.2885
-81.5935
-157.783
-148.662
-174.336
-217.041
-231.219
-66.0635
-13.2495
-12.4737
-107.891
-230.616
-203.348
-215.095
-38.0956
-76.3491
-169.547
-32.1852
-24.7706
-217.944
-213.959
-21.3176
-16.0671
-93.5868
-92.182
-123.697
-108.758
-75.3382
-244.246
-7.40811
-62.7312
-62.9793
-55.8129
-56.0714
-62.5414
-137.066
-74.6611
-80.9803
-106.916
-115.268
-36.4015
-148.229
-228.897
-7.17724
-178.479
-207.776
-220.95
-55.9286
-97.6053
-183.641
-147.939
-139.006
-139.856
-131.018
-129.903
-7.45823
-30.292
-37.4768
-40.0223
-47.616
-49.153
-229.119
-226.528
-60.7245
-131.099
-49.559
-68.3271
-59.4453
-233.061
-26.6418
-244.941
-235.633
-6.60356
-241.234
-15.5318
-11.8593
-60.5342
-23.4868
-15.0196
-46.4062
-45.864
-125.46
-48.692
-7.03934
-11.6225
-259.757
-245.111
-244.503
-231.97
-231.907
-220.012
-229.551
-25.3595
-18.5453
-250.19
-7.75862
-32.588
-12.5714
-22.4393
-4.4934
-5.88666
-67.7973
-75.0088
-66.1792
-115.293
-100.314
-1.71793
-21.7583
-84.5922
-245.17
-18.1007
-12.8296
-12.2378
-8.19122
-9.18547
-7.98908
-12.1458
-7.75663
-161.57
-150.368
-151.084
-139.688
-139.116
-128.589
-127.682
-117.469
-117.231
-117.819
-107.087
-127.324
-116.784
-107.856
-107.077
-97.9994
-97.9578
-107.517
-138.118
-151.642
-124.605
-139.316
-90.373
-161.146
-107.461
-170.348
-18.0534
-17.2768
-80.2945
-89.7156
-101.485
-164.11
-10.1904
-36.5693
-44.3667
-52.6047
-55.8972
-168.265
-121.249
-2.02161
-2.14973
-6.5312
-2.98295
-189.167
-200.42
-129.968
-115.437
-149.735
-139.946
-252.945
-239.859
-239.013
-252.099
-238.903
-225.811
-81.6009
-73.4529
-87.4933
-96.1393
-101.974
-93.3902
-76.8994
-139.417
-152.222
-130.775
-159.111
-157.775
-21.2354
-79.6433
-37.4563
-43.424
-90.2488
-89.1588
-47.1529
-140.379
-123.818
-104.265
-129.19
-65.2976
-152.36
-2.22916
-181.367
-149.974
-140.75
-174.521
-166.587
-191.444
-198.207
-14.0817
-244.192
-254.022
-236.197
-240.637
-239.5
-115.086
-37.0294
-75.2325
-198.742
-174.085
-2.64108
-1.89449
-108.186
-52.716
-169.298
-24.3907
-182.502
-214.83
-67.5124
-75.0601
-67.8831
-93.9892
-202.983
-102.327
-195.78
-207.163
-212.248
-95.8025
-92.3353
-11.8453
-163.335
-179.693
-199.857
-212.086
-216.533
-220.816
-8.38424
-40.3787
-242.402
-149.461
-167.616
-53.2322
-146.699
-29.834
-70.0927
-83.901
-232.988
-42.4212
-38.4147
-7.74546
-67.5236
-16.0058
-85.5379
-41.1591
-108.62
-195.465
-80.3657
-95.0888
-70.1174
-67.1175
-67.0385
-32.4971
-225.936
-51.2592
-7.98204
-35.4383
-4.93452
-3.7769
-256.55
-3.13878
-231.846
-124.423
-95.6603
-160.157
-116.314
-117.928
-3.11427
-22.1608
-49.2738
-196.609
-78.0128
-223.808
-45.1067
-156.398
-213.339
-106.363
-10.4127
-188.616
-181.329
-104.391
-210.275
-211.015
-258.013
-72.7414
-196.069
-55.7788
-151.56
-68.8695
-54.6377
-210.937
-67.3197
-38.2512
-244.346
-43.7373
-56.1589
-223.377
-111.946
-43.3396
-225.286
-10.0297
-226.954
-114.387
-123.087
-256.762
-222.936
-99.1975
-4.79687
-179.437
-189.856
-60.6031
-105.244
-15.2651
-86.8441
-57.2128
-4.38204
-254.58
-4.60274
-221.29
-147.382
-91.1951
-82.9663
-60.16
-115.134
-69.1835
-67.9208
-1.50542
-82.8611
-4.13033
-95.28
-237.773
-99.3456
-75.6568
-50.257
-257.902
-124.011
-5.74824
-126.569
-113.287
-59.5219
-254.857
-239.241
-126.752
-100.805
-32.6516
-97.9564
-209.419
-4.90849
-210.946
-268.722
-4.57215
-13.7937
-131.019
-83.0153
-49.957
-4.88975
-135.792
-100.854
-33.2174
-4.1893
-108.558
-8.18891
-73.3207
-121.95
-227.042
-132.645
-72.9576
-241.952
-256.33
-90.3889
-243.164
-160.191
-130.282
</DataArray>
<DataArray type='Float64' Name='U' Format='ascii'>
0
0
293.345
328.186
0
167.875
10.9818
20.4964
29.9047
39.1464
48.3825
57.6504
66.9095
76.1371
85.3039
94.4228
103.393
112.257
120.962
129.443
137.68
145.657
153.351
160.741
0
0
0
0
0
0
0
0
0
0
0
0
0
0
0
0
0
0
285.582
279.169
273.986
269.925
266.948
265.089
264.261
264.37
265.504
267.581
270.574
274.455
279.208
284.833
291.319
298.689
307.05
316.593
172.336
177.318
182.815
188.808
195.281
202.198
209.527
217.243
225.322
233.738
242.485
251.552
260.935
270.65
280.788
291.348
302.572
314.529
18.5175
32.9034
46.6845
60.3564
74.1046
88.1035
102.253
116.66
131.272
146.08
161.226
176.402
191.789
207.351
223.129
239.208
255.956
273.504
67.8612
106.523
204.72
2.44392
253.075
132.169
3.23816
240.532
39.4288
134.068
263.145
249.979
176.775
87.3307
184.471
3.1142
4.12032
269.021
258.494
87.2043
281.562
45.2783
5.43832
171.248
226.151
222.214
2.40676
4.79744
291.513
151.23
21.1999
266.349
18.6392
298.345
58.3889
60.436
51.0856
54.1318
44.8936
48.8513
58.081
53.4791
62.8259
58.4354
67.9487
63.7108
73.6455
69.7047
79.8463
76.2057
86.5413
83.2158
93.732
90.7393
80.3441
88.4354
101.203
77.9646
86.9353
96.6025
76.4892
85.9217
96.4747
95.8139
106.578
54.2933
75.8644
106.265
117.404
117.385
128.933
66.4413
66.2189
128.928
129
140.903
106.649
141.406
56.8732
57.0965
153.247
154.395
47.9025
48.5619
58.1239
49.8289
59.9133
39.952
142.578
156.352
78.2739
166.217
165.406
51.7784
39.739
39.3384
144.979
62.5917
178.47
177.969
31.6866
31.5739
159.365
54.6117
43.9859
191.155
190.866
178.063
191.177
179.168
192.232
180.741
193.797
183.049
196.074
186.082
199.161
189.787
176.848
181.127
168.556
173.214
202.876
161.409
165.552
154.52
159.143
148.094
153.207
142.594
154.468
148.491
137.53
212.238
216.129
177.939
192.064
144.105
133.202
160.319
39.4155
31.9299
148.429
134.027
142.295
126.584
122.393
140.378
66.2249
74.4692
78.2108
24.6855
25.0718
205.06
65.288
47.1171
36.6687
225.425
229.304
220.59
115.848
112.002
163.179
174.152
204.758
167.799
87.0965
138.091
178.468
189.444
206.022
119.147
151.012
69.0951
203.868
119.676
233.365
34.424
27.4782
30.0691
25.6942
18.3373
17.9142
19.0854
25.9865
20.203
147.814
39.7398
91.8142
67.0909
21.3799
23.9992
107.404
222.193
235.801
225.545
242.588
212.785
12.977
218.173
108.76
27.4461
21.5983
105.511
33.7582
232.837
194.202
205.169
70.7895
123.515
128.296
119.811
158.122
237.704
116.37
35.6972
143.429
193.58
208.874
218.706
205.207
27.4781
246.853
137.586
145.238
56.9228
211.349
198.747
33.6457
14.964
16.4201
35.9739
83.4607
205.323
193.599
183.391
217.651
231.528
69.8051
15.7825
13.9551
161.46
250.355
211.448
220.542
69.8565
76.3962
199.081
32.2439
24.7731
226.75
216.846
31.516
26.958
96.1319
93.2105
134.78
118.458
135.235
261.016
8.81913
106.231
99.0304
96.6034
89.5722
91.8509
149.954
143.634
153.349
168.413
171.205
42.0057
157.942
230.029
10.7471
224.151
219.092
230.387
82.3968
164.566
185.328
199.855
188.52
182.187
177.956
184.859
9.74683
38.7232
45.0764
51.2509
57.5424
62.8719
232.855
228.312
113.029
170.793
80.2367
123.134
72.617
233.062
36.2051
245.087
235.965
11.7362
243.334
30.8833
22.9066
121.371
32.6402
20.7446
48.0144
48.9166
141.663
97.0309
7.8362
12.3604
289.086
279.131
272.082
264.264
271.05
257.488
255.563
25.583
18.618
251.012
9.95131
33.0944
30.2613
49.0201
12.5213
14.3986
158.987
158.108
142.574
179.361
177.913
3.51076
41.4338
129.499
257.856
18.1156
12.8348
12.3117
8.19748
9.23232
8.16133
12.5814
8.36478
169.755
156.934
155.127
144.97
147.22
135.196
137.257
125.289
128.489
122.865
113.264
140.772
132.028
120.962
124.474
113.125
118.063
130.067
141.111
153.804
142.429