<VTKFile type='UnstructuredGrid' version='0.1' byte_order='BigEndian'>
<UnstructuredGrid>
<Piece NumberOfPoints='652' NumberOfCells='607'>
<Points>
<DataArray type='Float64' NumberOfComponents='3' Format='ascii'>
0 0 0
0 1 0
1 1 0
1 0 0
0 0.3 0
0.3 0 0
0.0335893 0.298114 0
0.0667563 0.292478 0
0.0990837 0.283165 0
0.130165 0.270291 0
0.15961 0.254017 0
0.187047 0.234549 0
0.212132 0.212132 0
0.234549 0.187047 0
0.254017 0.15961 0
0.270291 0.130165 0
0.283165 0.0990837 0
0.292478 0.0667563 0
0.298114 0.0335893 0
0 0.338889 0
0 0.377778 0
0 0.416667 0
0 0.455556 0
0 0.494444 0
0 0.533333 0
0 0.572222 0
0 0.611111 0
0 0.65 0
0 0.688889 0
0 0.727778 0
0 0.766667 0
0 0.805556 0
0 0.844444 0
0 0.883333 0
0 0.922222 0
0 0.961111 0
1 0.944444 0
1 0.888889 0
1 0.833333 0
1 0.777778 0
1 0.722222 0
1 0.666667 0
1 0.611111 0
1 0.555556 0
1 0.5 0
1 0.444444 0
1 0.388889 0
1 0.333333 0
1 0.277778 0
1 0.222222 0
1 0.166667 0
1 0.111111 0
1 0.0555556 0
0.338889 0 0
0.377778 0 0
0.416667 0 0
0.455556 0 0
0.494444 0 0
0.533333 0 0
0.572222 0 0
0.611111 0 0
0.65 0 0
0.688889 0 0
0.727778 0 0
0.766667 0 0
0.805556 0 0
0.844444 0 0
0.883333 0 0
0.922222 0 0
0.961111 0 0
0.0555556 1 0
0.111111 1 0
0.166667 1 0
0.222222 1 0
0.277778 1 0
0.333333 1 0
0.388889 1 0
0.444444 1 0
0.5 1 0
0.555556 1 0
0.611111 1 0
0.666667 1 0
0.722222 1 0
0.777778 1 0
0.833333 1 0
0.888889 1 0
0.944444 1 0
0.254556 0.246842 0
0.0813934 0.581651 0
0.549575 0.066355 0
0.472219 0.912636 0
0.904971 0.50488 0
0.900153 0.307916 0
0.289084 0.872524 0
0.721229 0.900031 0
0.0776351 0.733705 0
0.724224 0.0716174 0
0.12283 0.347547 0
0.344738 0.131937 0
0.884068 0.71318 0
0.0791318 0.853205 0
0.858339 0.0710955 0
0.319413 0.198583 0
0.311041 0.251933 0
0.272912 0.305964 0
0.353078 0.329639 0
0.324405 0.40528 0
0.407479 0.42467 0
0.351321 0.476149 0
0.435646 0.474076 0
0.478712 0.403512 0
0.509264 0.474152 0
0.401137 0.51749 0
0.563569 0.375631 0
0.371425 0.265732 0
0.601892 0.493724 0
0.554074 0.573165 0
0.241689 0.457582 0
0.628411 0.610731 0
0.642337 0.417971 0
0.633399 0.299818 0
0.584894 0.662929 0
0.684881 0.67399 0
0.70939 0.349959 0
0.681286 0.233276 0
0.567453 0.242761 0
0.511285 0.658537 0
0.602974 0.737822 0
0.748353 0.613811 0
0.725525 0.435659 0
0.634571 0.180483 0
0.748771 0.754677 0
0.198587 0.302369 0
0.186751 0.362896 0
0.110282 0.40089 0
0.761394 0.262215 0
0.534504 0.168459 0
0.395481 0.167226 0
0.426733 0.110032 0
0.497618 0.224736 0
0.473887 0.15159 0
0.483403 0.0720694 0
0.153436 0.899505 0
0.202899 0.816472 0
0.339057 0.780796 0
0.270752 0.743607 0
0.382235 0.699867 0
0.31261 0.670521 0
0.227441 0.67257 0
0.241806 0.580072 0
0.159311 0.590974 0
0.147852 0.656026 0
0.117485 0.492404 0
0.422062 0.80527 0
0.89148 0.153874 0
0.810602 0.155595 0
0.163688 0.426744 0
0.740965 0.167378 0
0.513521 0.309504 0
0.151507 0.736311 0
0.122791 0.80427 0
0.908 0.394456 0
0.580386 0.903231 0
0.923059 0.633635 0
0.380553 0.89843 0
0.516879 0.817023 0
0.833743 0.897235 0
0.642838 0.0733079 0
0.807468 0.672716 0
0.807106 0.341902 0
0.703063 0.532188 0
0.893617 0.835401 0
0.471177 0.549027 0
0.435869 0.347476 0
0.426388 0.622894 0
0.0766012 0.668159 0
0.451193 0.727871 0
0.798401 0.08776 0
0.0711394 0.436269 0
0.188662 0.52374 0
0.791378 0.514775 0
0.843021 0.226134 0
0.0557908 0.383168 0
0.357321 0.0616289 0
0.251786 0.374838 0
0.84041 0.785868 0
0.66308 0.827087 0
0.29667 0.51314 0
0.518617 0.733913 0
0.828569 0.438759 0
0.0701878 0.790621 0
0.439834 0.200886 0
0.910206 0.911062 0
0.840158 0.579015 0
0.409268 0.0602347 0
0.683704 0.121021 0
0.926872 0.0808051 0
0.0820553 0.927622 0
0.782927 0.848517 0
0.592679 0.121663 0
0.0471237 0.517188 0
0.511649 0.115173 0
0.341412 0.586018 0
0.377797 0.211343 0
0.754077 0.103794 0
0.066044 0.336273 0
0.447815 0.268352 0
0.116284 0.876355 0
0.0805936 0.890413 0
0.117746 0.913564 0
0.87491 0.112485 0
0.909176 0.117339 0
0.892606 0.0759503 0
0.526303 0.907934 0
0.548632 0.860127 0
0.494549 0.864829 0
0.516489 0.0692122 0
0.497526 0.093621 0
0.530612 0.0907638 0
0.177203 0.776391 0
0.137149 0.77029 0
0.162845 0.810371 0
0.187647 0.664298 0
0.14968 0.696168 0
0.189474 0.70444 0
0.164376 0.28633 0
0.192817 0.268459 0
0.504196 0.160024 0
0.523076 0.141816 0
0.492768 0.133381 0
0.291681 0.707064 0
0.270026 0.671546 0
0.249097 0.708088 0
0.550978 0.20561 0
0.516061 0.196597 0
0.532535 0.233749 0
0.950077 0.265069 0
0.950077 0.320625 0
0.282799 0.249388 0
0.263734 0.276403 0
0.291977 0.278949 0
0.623526 0.951615 0
0.567971 0.951615 0
0.952485 0.474662 0
0.952485 0.530218 0
0.474695 0.32849 0
0.480668 0.288928 0
0.441842 0.307914 0
0.72134 0.247745 0
0.75118 0.214797 0
0.711125 0.200327 0
0.96153 0.594595 0
0.96153 0.650151 0
0.749504 0.950015 0
0.693948 0.950015 0
0.541454 0.0331775 0
0.580343 0.0331775 0
0.559927 0.777422 0
0.560796 0.735867 0
0.517748 0.775468 0
0.626975 0.036654 0
0.665863 0.036654 0
0.220802 0.240696 0
0.244553 0.216945 0
0.0907107 0.41858 0
0.0830364 0.392029 0
0.0634651 0.409718 0
0.493988 0.438832 0
0.536416 0.424891 0
0.52114 0.389571 0
0.0994393 0.537028 0
0.0823045 0.504796 0
0.0642585 0.54942 0
0.706556 0.0358087 0
0.745445 0.0358087 0
0.675864 0.383965 0
0.683931 0.426815 0
0.717457 0.392809 0
0.283047 0.431431 0
0.288096 0.390059 0
0.246738 0.41621 0
0.37011 0.149582 0
0.411107 0.138629 0
0.385736 0.120985 0
0.365942 0.414975 0
0.337863 0.440715 0
0.3794 0.45041 0
0.735392 0.306087 0
0.758248 0.345931 0
0.78425 0.302059 0
0.443095 0.414091 0
0.45729 0.375494 0
0.421674 0.386073 0
0.0235618 0.525261 0
0.0235618 0.486372 0
0.200559 0.585523 0
0.215234 0.551906 0
0.173986 0.557357 0
0.100961 0.828737 0
0.0964892 0.797445 0
0.0746598 0.821913 0
0.851041 0.154735 0
0.826811 0.190865 0
0.86725 0.190004 0
0.0388176 0.750186 0
0.0350939 0.778644 0
0.0739115 0.762163 0
0.468726 0.212811 0
0.443824 0.234619 0
0.472717 0.246544 0
0.777911 0.643263 0
0.823813 0.625865 0
0.794256 0.596413 0
0.86368 0.866318 0
0.871975 0.904148 0
0.901911 0.873231 0
0.033022 0.318136 0
0.0664001 0.314376 0
0.481239 0.693204 0
0.484905 0.730892 0
0.514951 0.696225 0
0.269238 0.546606 0
0.291609 0.583045 0
0.319041 0.549579 0
0.794591 0.770273 0
0.765849 0.801597 0
0.811669 0.817193 0
0.417658 0.184056 0
0.386639 0.189285 0
0.408816 0.206115 0
0.154791 0.355222 0
0.192669 0.332633 0
0.126497 0.308919 0
0.159583 0.320776 0
0.712335 0.1442 0
0.659137 0.150752 0
0.657928 0.206879 0
0.685131 0.175539 0
0.802207 0.244175 0
0.775783 0.161487 0
0.788995 0.202831 0
0.871587 0.267025 0
0.94574 0.188048 0
0.908663 0.227537 0
0.633027 0.782454 0
0.705926 0.790882 0
0.716826 0.714334 0
0.643928 0.705906 0
0.674927 0.748394 0
0.924547 0.0404025 0
0.851392 0.0355477 0
0.88797 0.0379751 0
0.663271 0.0971644 0
0.703964 0.0963192 0
0.684914 0.0664866 0
0.0410277 0.924922 0
0.0395659 0.848825 0
0.0402968 0.886873 0
0.808335 0.872876 0
0.867013 0.810634 0
0.837674 0.841755 0
0.613625 0.151073 0
0.617759 0.0974852 0
0.638448 0.124119 0
0.692155 0.863559 0
0.621733 0.865159 0
0.657841 0.907587 0
0.85363 0.324909 0
0.827919 0.284542 0
0.153581 0.6235 0
0.234624 0.626321 0
0.194103 0.62491 0
0.563592 0.145061 0
0.601012 0.211622 0
0.582302 0.178341 0
0.899547 0.955531 0
0.805761 0.948617 0
0.852654 0.952074 0
0.571127 0.0940087 0
0.599051 0.0653314 0
0.0406967 0.596381 0
0.0321293 0.560821 0
0.469479 0.0360347 0
0.505467 0.0346061 0
0.455068 0.0910508 0
0.45031 0.130811 0
0.473918 0.112216 0
0.202688 0.442163 0
0.219269 0.368867 0
0.175219 0.39482 0
0.210979 0.405515 0
0.187829 0.949752 0
0.255653 0.936262 0
0.245991 0.844498 0
0.178168 0.857988 0
0.21691 0.897125 0
0.262349 0.340401 0
0.338742 0.367459 0
0.312995 0.317802 0
0.300545 0.35393 0
0.112226 0.662093 0
0.0771182 0.700932 0
0.114571 0.735008 0
0.113399 0.69855 0
0.0789973 0.624905 0
0.120352 0.586313 0
0.116289 0.624203 0
0.436628 0.766571 0
0.469471 0.811146 0
0.477188 0.771019 0
0.416714 0.713869 0
0.360646 0.740332 0
0.38056 0.793033 0
0.398637 0.753451 0
0.327011 0.62827 0
0.280818 0.627295 0
0.404312 0.66138 0
0.468836 0.640715 0
0.442775 0.677292 0
0.362252 0.297686 0
0.341233 0.258833 0
0.327114 0.288317 0
0.725708 0.572999 0
0.665737 0.571459 0
0.656646 0.642361 0
0.716617 0.6439 0
0.691177 0.60768 0
0.418001 0.0851334 0
0.383295 0.0609318 0
0.35103 0.0967832 0
0.384515 0.0909583 0
0.82837 0.0794277 0
0.782534 0.04388 0
0.816963 0.0397139 0
0.314071 0.82666 0
0.334819 0.885477 0
0.401308 0.85185 0
0.357689 0.839255 0
0.394474 0.338558 0
0.380208 0.376766 0
0.26918 0.485361 0
0.323996 0.494645 0
0.303521 0.463038 0
0.371275 0.551754 0
0.376229 0.49682 0
0.347635 0.523199 0
0.657342 0.266547 0
0.671394 0.324889 0
0.696367 0.286317 0
0.714294 0.483923 0
0.622115 0.455848 0
0.652477 0.512956 0
0.668204 0.469885 0
0.426386 0.905533 0
0.447929 0.85834 0
0.3249 0.0641926 0
0.307515 0.131051 0
0.317097 0.0979335 0
0.49022 0.511589 0
0.512625 0.561096 0
0.577983 0.533444 0
0.555578 0.483938 0
0.534102 0.522517 0
0.777047 0.437209 0
0.817838 0.390331 0
0.767648 0.39157 0
0.881609 0.606325 0
0.845768 0.692948 0
0.903564 0.673408 0
0.863688 0.649637 0
0.59083 0.821291 0
0.598484 0.337724 0
0.602953 0.396801 0
0.637174 0.360845 0
0.868285 0.416608 0
0.86677 0.47182 0
0.954 0.41945 0
0.910385 0.445635 0
0.458332 0.956318 0
0.513151 0.953967 0
0.579266 0.440369 0
0.215176 0.490661 0
0.242207 0.518633 0
0.872564 0.541948 0
0.917047 0.568272 0
0.606653 0.63683 0
0.591242 0.591948 0
0.532679 0.615851 0
0.548089 0.660733 0
0.569666 0.626341 0
0.36755 0.0308145 0
0.332832 0.0322019 0
0.10553 0.766226 0
0.62186 0.552452 0
0.356943 0.949215 0
0.306298 0.942738 0
0.348605 0.204963 0
0.332076 0.16526 0
0.359357 0.177272 0
0.752078 0.874274 0
0.778919 0.911446 0
0.40962 0.267042 0
0.402047 0.3028 0
0.304905 0.762202 0
0.236826 0.780039 0
0.275448 0.80335 0
0.600426 0.27129 0
0.540487 0.276133 0
0.538545 0.342568 0
0.569485 0.306929 0
0.862239 0.749524 0
0.946808 0.806589 0
0.942034 0.745479 0
0.904524 0.778057 0
0.116556 0.374219 0
0.0944369 0.34191 0
0.0609174 0.35972 0
0.0887367 0.36697 0
0.809974 0.476767 0
0.74722 0.523481 0
0.762134 0.480345 0
0.21315 0.74224 0
0.421563 0.449373 0
0.418392 0.495783 0
0.398896 0.473097 0
0.23575 0.304167 0
0.228276 0.272431 0
0.629177 0.239084 0
0.374611 0.238538 0
0.409218 0.236578 0
0.904077 0.351186 0
0.952038 0.370038 0
0.955103 0.899975 0
0.950956 0.853282 0
0.472455 0.474114 0
0.436157 0.533259 0
0.454306 0.503686 0
0.0278954 0.380473 0
0.0355697 0.445912 0
0.0317326 0.413193 0
0.315227 0.225258 0
0.276981 0.192815 0
0.27989 0.221101 0
0.407638 0.952766 0
0.593934 0.700376 0
0.62529 0.671368 0
0.739151 0.0877057 0
0.776239 0.095777 0
0.760842 0.0657928 0
0.457775 0.444103 0
0.347423 0.685194 0
0.326164 0.723698 0
0.815768 0.546895 0
0.770738 0.559947 0
0.951782 0.697815 0
0.456861 0.176238 0
0.486461 0.186418 0
0.860957 0.370759 0
0.3839 0.604456 0
0.448783 0.58596 0
0.410029 0.568857 0
0.433984 0.157434 0
0.153074 0.508072 0
0.136713 0.547192 0
0.227509 0.336517 0
0.0383006 0.678524 0
0.0385591 0.714355 0
0.77812 0.713696 0
0.747368 0.678798 0
0.841269 0.509357 0
0.490731 0.600905 0
0.0943123 0.464336 0
0.140587 0.459574 0
0.136985 0.413817 0
0.115649 0.439077 0
0.506602 0.261339 0
0.804501 0.121678 0
0.839706 0.117081 0
0.820179 0.73161 0
0.497918 0.359031 0
0.365661 0.644825 0
0.0965832 0.963811 0
0.142206 0.956782 0
0.963436 0.0959581 0
0.954588 0.142003 0
0.139565 0.843363 0
0.949774 0.949988 0
0.177881 0.475118 0
0.293046 0.162435 0
0.547102 0.117912 0
0.0589371 0.475354 0
0.0394986 0.637453 0
0.0967603 0.312537 0
0.729002 0.832578 0
0.0373299 0.813734 0
0.554442 0.6983 0
0.145888 0.38452 0
0.747521 0.135586 0
0.725743 0.115953 0
0.0304587 0.349305 0
0.0482916 0.962461 0
0.432412 0.0301173 0
0.399981 0.0304659 0
0.962274 0.047979 0
0.344919 0.231898 0
0.776011 0.128632 0
0.44374 0.0605841 0
0.104875 0.893444 0
0.892231 0.101925 0
0.523161 0.87763 0
0.514876 0.0845323 0
0.159066 0.785684 0
0.1756 0.688302 0
0.1721 0.269336 0
0.50668 0.145074 0
0.270268 0.695566 0
0.533191 0.211985 0
0.966718 0.287824 0
0.279503 0.268247 0
0.600869 0.967744 0
0.968324 0.501627 0
0.465735 0.308444 0
0.727882 0.220956 0
0.974353 0.618619 0
0.721891 0.966677 0
0.564673 0.0221183 0
0.546157 0.762919 0
0.647613 0.024436 0
0.225607 0.223035 0
0.0790707 0.406776 0
0.517182 0.417765 0
0.0820008 0.530415 0
0.726593 0.0238725 0
0.692417 0.401196 0
0.272627 0.412567 0
0.388984 0.136399 0
0.361068 0.435367 0
0.759297 0.318026 0
0.440686 0.391886 0
0.0157079 0.502026 0
0.196593 0.564928 0
0.0907034 0.816032 0
0.848367 0.178534 0
0.0492743 0.763664 0
0.461756 0.231325 0
0.79866 0.621847 0
0.879189 0.881232 0
0.044302 0.309896 0
0.493698 0.706774 0
0.293296 0.559743 0
0.790703 0.796354 0
0.404371 0.193152 0
</DataArray>
</Points>
<PointData Vectors='Velocity'>
<DataArray type='Float64' Name='Ux' Format='ascii'>
0
0
0.0528675
-0.0861245
0
-0.0784952
-0.0075231
-0.0123978
-0.0189284
-0.0242468
-0.0304866
-0.0354559
-0.0413215
-0.0464732
-0.0520644
-0.0573979
-0.0628826
-0.0680949
-0.0734142
0
0
0
0
0
0
0
0
0
0
0
0
0
0
0
0
0
0.0426396
0.0339612
0.0260312
0.0184264
0.0113847
0.00443687
-0.00213609
-0.00879578
-0.01534
-0.0220339
-0.0288681
-0.0359216
-0.0431752
-0.0507021
-0.0586215
-0.0669302
-0.0757251
-0.0785825
-0.0784702
-0.078615
-0.0787175
-0.0790757
-0.0794089
-0.0799134
-0.080401
-0.0810127
-0.0815471
-0.0821864
-0.0827303
-0.0833851
-0.0839214
-0.084594
-0.0850758
-0.0857938
0.00892405
0.0137982
0.0196913
0.0239157
0.0285713
0.0322283
0.0357808
0.0385875
0.041328
0.0434304
0.0456472
0.0470043
0.0485283
0.0494756
0.0506112
0.0513239
0.0523635
-0.0355808
-0.000742083
-0.0699789
0.028515
-0.0146421
-0.0388635
0.0164167
0.0333794
0.00177649
-0.0712936
-0.0120801
-0.057511
0.00999953
0.00396909
-0.072684
-0.045874
-0.0369074
-0.0271529
-0.0273803
-0.0175961
-0.0182446
-0.0117018
-0.013886
-0.0223905
-0.0152187
-0.00915405
-0.0273414
-0.0367989
-0.0143626
-0.0055849
-0.0097989
-0.00196059
-0.023435
-0.0379913
0.0035059
0.00499698
-0.0324062
-0.0475174
-0.0446745
0.00286934
0.0116171
-0.00175799
-0.022093
-0.0543855
0.0147088
-0.023566
-0.0151936
-0.00714123
-0.0442379
-0.0547087
-0.0525058
-0.0619657
-0.0459402
-0.0562551
-0.0683737
0.0103738
0.00870038
0.0110681
0.00682067
0.0056552
0.00294575
0.0022947
-0.00233885
-0.00109287
0.000956961
-0.00359968
0.0153867
-0.0601226
-0.0595453
-0.0085867
-0.0573351
-0.034664
0.00358428
0.00486094
-0.0279129
0.030747
0.000451831
0.0231022
0.0188684
0.0344825
-0.0700865
0.005053
-0.0341151
-0.0108298
0.0259035
-0.00725744
-0.027867
-0.00041605
0.000680149
0.00884941
-0.0696116
-0.00346224
-0.004292
-0.0131871
-0.0495982
-0.00408853
-0.0690059
-0.0175694
0.0190832
0.0228173
-0.00743479
0.0102335
-0.0222684
0.00242421
-0.048205
0.0370183
-0.00587299
-0.0694989
-0.0635453
-0.0714442
0.00621748
0.0270712
-0.0623756
-0.00120088
-0.0622699
-0.00292269
-0.04522
-0.0667945
-0.00773849
-0.0386057
0.00713775
0.00540091
0.00917107
-0.0663407
-0.0657001
-0.0722244
0.0300031
0.0246927
0.0237998
-0.0692343
-0.0653817
-0.0662086
0.00591088
0.00444653
0.00692031
0.00155442
0.00226472
0.00327936
-0.0242349
-0.0290974
-0.0555523
-0.0585249
-0.0593597
0.00510824
0.00269482
0.00443128
-0.0496574
-0.0503828
-0.0453891
-0.0446838
-0.0373781
-0.0364473
-0.0312939
-0.0321384
0.0387085
0.0370971
-0.0182743
-0.0116868
-0.0313621
-0.0366814
-0.0331261
-0.04594
-0.0506941
-0.05242
-0.00408993
0.00251405
0.0412868
0.0402099
-0.0747902
-0.0752462
0.0155466
0.0110686
0.0145894
-0.0753407
-0.0758345
-0.0356316
-0.0408908
-0.00546517
-0.00628847
-0.00418831
-0.0187717
-0.0210649
-0.0249318
-0.00194815
-0.00237014
-0.00115285
-0.0765074
-0.0769907
-0.0278593
-0.0227981
-0.0271584
-0.0135714
-0.0178417
-0.0134323
-0.055008
-0.0573846
-0.0598526
-0.0180996
-0.014593
-0.0148799
-0.0382391
-0.0333115
-0.0391059
-0.0203707
-0.025139
-0.0229171
-0.000598162
-0.000889109
-0.00166462
-0.00349655
-0.00255785
0.00473544
0.00369809
0.00331255
-0.059906
-0.0545319
-0.0548085
0.00106186
0.00113054
0.0021905
-0.0471273
-0.0433861
-0.0423705
0.00167083
-0.000357052
-0.00373654
0.0302824
0.0359468
0.031396
-0.00559668
-0.0104203
0.00611003
0.00967548
0.00661809
-0.00463909
-0.00267177
-0.00528904
0.0169992
0.0207853
0.0231866
-0.0503957
-0.0489635
-0.0468431
-0.0141592
-0.0193577
-0.017379
-0.0182542
-0.0604939
-0.0589932
-0.0509606
-0.0556572
-0.0469492
-0.0584916
-0.0526058
-0.0441629
-0.0553292
-0.0496418
0.0171177
0.018944
0.0098194
0.00849042
0.0134528
-0.0783014
-0.0783597
-0.0782649
-0.0668699
-0.0674509
-0.0715998
0.00333946
0.00205779
0.00237779
0.0308452
0.0225476
0.0265524
-0.0584085
-0.0662855
-0.0625806
0.0281073
0.0270157
0.0332347
-0.0364939
-0.0416418
-2.37793e-05
9.34579e-05
3.83039e-05
-0.0586204
-0.049578
-0.0539981
0.0443036
0.0420196
0.0430536
-0.0662225
-0.0707222
-0.000252443
-0.000471375
-0.0736684
-0.0741402
-0.0652751
-0.0591443
-0.0622177
-0.00952807
-0.0166928
-0.0117906
-0.0125517
0.0167721
0.020393
0.0125365
0.00992773
0.014402
-0.0222436
-0.022339
-0.0274713
-0.0222289
0.000900601
0.00124384
0.00272792
0.00173229
4.34054e-06
-0.000984222
-8.83423e-06
0.0122641
0.0173053
0.0133037
0.00730919
0.00860126
0.0133392
0.010237
0.000182137
0.000115981
0.00283946
0.00120972
0.00428639
-0.0320628
-0.0369675
-0.0319802
-0.00627342
-0.00624705
0.00151909
0.0017224
-0.00238615
-0.0658027
-0.0693184
-0.0634592
-0.0645176
-0.0711824
-0.0762361
-0.0772457
0.0140015
0.0199296
0.0193854
0.0164752
-0.0277793
-0.0226583
-0.00879767
-0.00955434
-0.0114754
-0.00581322
-0.0105384
-0.00770836
-0.0427434
-0.0352125
-0.0404913
-0.0163471
-0.0187965
-0.0126431
-0.0176527
0.0260108
0.0214776
-0.0686226
-0.0574516
-0.0630155
-0.0110943
-0.00644702
-0.00981765
-0.0148552
-0.0105605
-0.0222039
-0.0280925
-0.0276848
-0.00268228
0.00759104
0.00528029
0.00234653
0.0208887
-0.0326274
-0.0254164
-0.030266
-0.0250684
-0.018429
-0.0249544
-0.0216855
0.0335437
0.035314
-0.0200204
-0.00684519
-0.00580501
-0.0101899
-0.00722781
0.000892916
-0.00377706
-0.00117547
0.00328332
-0.000262716
-0.0739034
-0.0735403
0.00317916
-0.00815629
0.0276916
0.023895
-0.0456331
-0.0518516
-0.0502318
0.0304033
0.0359359
-0.0378431
-0.0325852
0.00897061
0.00810737
0.0107127
-0.0413499
-0.039678
-0.030984
-0.0360836
0.0145763
0.0222051
0.0141997
0.0182307
-0.00977729
-0.0106726
-0.00618789
-0.00763081
-0.0176619
-0.0119764
-0.0170641
0.00535899
-0.0160757
-0.011486
-0.0131685
-0.025738
-0.03007
-0.0460977
-0.0410516
-0.0421691
-0.0333159
-0.0310766
0.0354997
0.0285836
-0.014617
-0.00828504
-0.0113328
-0.00239929
-0.00175513
-0.00181881
-0.0414581
-0.046066
-0.0409869
0.0305713
0.00758
0.00452964
-0.0690956
-0.0682475
-0.0725856
-0.0174306
0.004309
0.00664143
-0.00949737
-0.0079311
0.00817801
-0.052331
-0.051274
-0.0307094
-0.00174175
-0.00365759
-0.00486525
-0.0547106
-0.00418134
-0.0022848
-0.0206819
0.000414824
0.000706508
0.00996752
0.00569074
-0.013971
-0.00255683
-0.00391714
-0.00591732
-0.00829341
-0.00554554
-0.040968
-0.0645687
-0.0654382
0.012156
-0.0280518
0.00134534
0.0104455
0.0132253
-0.0691202
-0.0620691
0.00695993
0.0434636
-0.00638215
-0.0516982
-0.0623325
-0.00213182
9.25482e-05
-0.0135523
0.0243753
0.00147297
0.00699827
-0.0105703
-0.0620649
-0.06472
-0.00282277
0.00439455
-0.0742755
-0.0739785
-0.0770088
-0.041128
-0.0632815
-0.0697101
0.00662574
-0.0679833
0.0259574
-0.0668791
0.0055791
0.00235132
-0.0273859
-0.0577339
0.00402653
-0.0484081
-0.0417278
-0.0331269
0.0402226
-0.0151323
-0.0336771
-0.0496525
-0.00132677
0.0431835
-0.0766127
0.0136185
-0.0773477
-0.0389878
-0.00482191
-0.0215492
-0.00174666
-0.0785171
-0.025953
-0.0148284
-0.0573348
-0.0157983
-0.0368854
-0.0227826
-0.00044618
-0.00254893
0.00376011
-0.0563742
0.0014123
-0.0442276
-0.000868837
0.0323984
-0.00688878
0.00733573
-0.00420399
0.0202149
-0.0486339
</DataArray>
<DataArray type='Float64' Name='Uy' Format='ascii'>
0
0
-0.137392
-0.140125
0
-0.0314606
-0.00330314
-0.00488832
-0.00755128
-0.00994157
-0.0130809
-0.016196
-0.0191051
-0.0221179
-0.0246174
-0.0269185
-0.0287961
-0.0302459
-0.0311423
0
0
0
0
0
0
0
0
0
0
0
0
0
0
0
0
0
-0.136765
-0.135776
-0.135003
-0.134234
-0.133611
-0.133234
-0.133014
-0.133124
-0.133305
-0.133806
-0.13441
-0.135155
-0.135892
-0.136754
-0.137691
-0.138507
-0.139456
-0.0374155
-0.0433046
-0.0489883
-0.0545891
-0.0601084
-0.0656361
-0.0711693
-0.076744
-0.0824132
-0.0881387
-0.0939757
-0.0999011
-0.105957
-0.112128
-0.1185
-0.125134
-0.132042
-0.00604716
-0.0101087
-0.0155005
-0.020973
-0.0271928
-0.0338306
-0.0411021
-0.0485369
-0.0564993
-0.0644753
-0.0729029
-0.0814201
-0.0900673
-0.0988622
-0.107743
-0.116912
-0.126326
-0.0252222
-0.00406097
-0.0676917
-0.0513335
-0.119068
-0.119658
-0.0262052
-0.0893345
-0.00405109
-0.0931506
-0.00812197
-0.0383789
-0.115389
-0.00459745
-0.11414
-0.0345347
-0.0328581
-0.0269174
-0.0374105
-0.0320525
-0.0433728
-0.0346276
-0.0466895
-0.054021
-0.0575737
-0.0411256
-0.0669624
-0.0410383
-0.0714475
-0.0633522
-0.0203277
-0.0746722
-0.0784402
-0.078219
-0.0675941
-0.0833632
-0.0893828
-0.0859299
-0.0690359
-0.0562876
-0.0702616
-0.0937618
-0.0912255
-0.0793173
-0.0934877
-0.0173742
-0.014955
-0.00635321
-0.0980283
-0.0649808
-0.045466
-0.0501782
-0.0592254
-0.0565637
-0.0583268
-0.0116712
-0.015613
-0.0316901
-0.0228378
-0.0373186
-0.027931
-0.0175346
-0.0193386
-0.0103862
-0.00941277
-0.00669629
-0.0432266
-0.119352
-0.106209
-0.0115105
-0.0953347
-0.0604506
-0.00997363
-0.00778153
-0.120234
-0.0673544
-0.121544
-0.0383511
-0.0571903
-0.107442
-0.0810604
-0.103083
-0.104687
-0.0869807
-0.117262
-0.0510181
-0.0487361
-0.0438414
-0.00387532
-0.0471949
-0.104508
-0.00313552
-0.0135532
-0.101108
-0.111095
-0.00215714
-0.0402301
-0.0229017
-0.108374
-0.0798345
-0.0267676
-0.0572626
-0.107445
-0.00371751
-0.0513736
-0.120222
-0.108576
-0.0478498
-0.0868771
-0.125653
-0.00560853
-0.0990745
-0.0735723
-0.00183835
-0.062106
-0.032104
-0.0426128
-0.0975818
-0.00337734
-0.0516646
-0.00806637
-0.00521239
-0.00894853
-0.11677
-0.122508
-0.119791
-0.0592959
-0.0623005
-0.0542422
-0.0630045
-0.0602289
-0.0649094
-0.0127077
-0.00892352
-0.011564
-0.0133056
-0.00974574
-0.0135788
-0.0135763
-0.0171247
-0.0607608
-0.06356
-0.0593426
-0.0253613
-0.0226214
-0.0201901
-0.0670271
-0.0621341
-0.0641088
-0.128027
-0.127474
-0.0290487
-0.0262063
-0.0299532
-0.0743867
-0.0659284
-0.126484
-0.126204
-0.0546218
-0.0560345
-0.0502576
-0.0919185
-0.0967002
-0.090638
-0.127398
-0.127433
-0.0940869
-0.0853074
-0.0666704
-0.0722035
-0.0636617
-0.0637703
-0.0572566
-0.078909
-0.0845905
-0.0206609
-0.023914
-0.00479001
-0.00438157
-0.00280694
-0.0558012
-0.062307
-0.0604914
-0.0053526
-0.00402627
-0.00294469
-0.0906359
-0.0965122
-0.08393
-0.0847991
-0.0902931
-0.0261519
-0.0275432
-0.0217338
-0.0419802
-0.0478361
-0.0443065
-0.0377285
-0.0334089
-0.039038
-0.093725
-0.0969944
-0.101355
-0.0487252
-0.051377
-0.0461033
-0.000821224
-0.0007483
-0.0147125
-0.0165122
-0.0120335
-0.00627298
-0.00570267
-0.00420681
-0.112704
-0.10868
-0.115206
-0.00177348
-0.00161226
-0.00394802
-0.0552934
-0.0515607
-0.0554709
-0.0983997
-0.105811
-0.101193
-0.112336
-0.11376
-0.118788
-0.00233836
-0.00451668
-0.0517307
-0.0522603
-0.0567995
-0.0230041
-0.0255781
-0.0294617
-0.100903
-0.0962556
-0.103708
-0.0484315
-0.0440429
-0.0469829
-0.011663
-0.0163555
-0.00945582
-0.0124402
-0.0910772
-0.0831124
-0.082617
-0.0868382
-0.104518
-0.100736
-0.102625
-0.115406
-0.128197
-0.121686
-0.0750381
-0.0866153
-0.0884052
-0.0767996
-0.0816366
-0.125339
-0.113118
-0.119137
-0.0839677
-0.0900133
-0.0872779
-0.00248215
-0.00199396
-0.00210438
-0.103247
-0.112784
-0.107993
-0.0764472
-0.0773219
-0.0801931
-0.0845871
-0.0735387
-0.0793734
-0.112148
-0.108344
-0.0099457
-0.018432
-0.0138816
-0.0692865
-0.0742033
-0.0717308
-0.118463
-0.103061
-0.110718
-0.070641
-0.0747489
-0.00167368
-0.00120566
-0.0564775
-0.0615723
-0.0542594
-0.0533989
-0.0568106
-0.0159574
-0.0190462
-0.0133729
-0.0172365
-0.0163725
-0.0233448
-0.0207941
-0.01364
-0.0182095
-0.0250434
-0.0347977
-0.0321858
-0.0297551
-0.00647085
-0.00398669
-0.00682446
-0.00658576
-0.00399223
-0.00702482
-0.00668529
-0.0452269
-0.0501951
-0.0510919
-0.0422693
-0.0344749
-0.0374415
-0.0396907
-0.0300022
-0.0239309
-0.0405656
-0.0500485
-0.0460068
-0.0392823
-0.0369776
-0.0345661
-0.0903489
-0.0808387
-0.0790199
-0.08857
-0.0846418
-0.0490258
-0.0440599
-0.0392981
-0.0442157
-0.109287
-0.102181
-0.107584
-0.028897
-0.0322484
-0.0407723
-0.0346159
-0.0430655
-0.0403288
-0.0235992
-0.0307341
-0.0282968
-0.0365691
-0.0379086
-0.0335176
-0.0820977
-0.083755
-0.0878562
-0.0891086
-0.0749619
-0.0791695
-0.0819743
-0.0448503
-0.0473023
-0.0353183
-0.0328238
-0.0341998
-0.0543079
-0.0571765
-0.067418
-0.0644827
-0.0607626
-0.0993222
-0.106061
-0.098153
-0.115041
-0.109225
-0.118475
-0.112142
-0.0684898
-0.0726306
-0.072656
-0.0782133
-0.113835
-0.113255
-0.127137
-0.120235
-0.0499862
-0.0577288
-0.06855
-0.0169249
-0.0197585
-0.113822
-0.120684
-0.0711727
-0.0690148
-0.0598206
-0.0619682
-0.0654017
-0.0417523
-0.0365124
-0.00615711
-0.0740356
-0.0360603
-0.0294038
-0.0385785
-0.036473
-0.040315
-0.0941708
-0.098597
-0.0463439
-0.0447074
-0.027234
-0.0191238
-0.0238042
-0.0735922
-0.0647909
-0.0636919
-0.0686511
-0.111891
-0.12597
-0.124761
-0.118846
-0.00752077
-0.0060111
-0.00313881
-0.00474025
-0.104281
-0.0940619
-0.0966822
-0.0161615
-0.0450586
-0.0439361
-0.0413908
-0.022167
-0.0214961
-0.0781101
-0.041854
-0.0466968
-0.119939
-0.127292
-0.12812
-0.126964
-0.0521302
-0.0460655
-0.0490313
-0.000865701
-0.00117342
-0.000899047
-0.0337265
-0.0284428
-0.0288268
-0.0427776
-0.0689582
-0.0739025
-0.0953629
-0.101031
-0.0987481
-0.0503493
-0.0326155
-0.0297463
-0.104832
-0.0975882
-0.126107
-0.053986
-0.058043
-0.112996
-0.0379322
-0.0474259
-0.0418672
-0.0509366
-0.0100899
-0.00831448
-0.0204526
-0.00167269
-0.00170091
-0.0982716
-0.0933805
-0.109047
-0.0535013
-0.00492786
-0.00907534
-0.0090737
-0.00663828
-0.0600813
-0.105372
-0.110986
-0.105071
-0.0574899
-0.0351252
-0.00837868
-0.0117454
-0.132191
-0.130118
-0.0095922
-0.127301
-0.012667
-0.0307598
-0.0670982
-0.00239945
-0.0016794
-0.00628435
-0.0903522
-0.00175463
-0.0627627
-0.0100275
-0.0964675
-0.0932163
-0.000821334
-0.0033984
-0.0512122
-0.0465475
-0.132212
-0.0378103
-0.100883
-0.0527684
-0.00705636
-0.119674
-0.0585298
-0.0627065
-0.0109577
-0.0121115
-0.0145716
-0.0612205
-0.0226371
-0.0644164
-0.130504
-0.0283432
-0.0709972
-0.128732
-0.0536114
-0.0930808
-0.129338
-0.089817
-0.0700081
-0.0614831
-0.0819499
-0.0213126
-0.00374898
-0.0594976
-0.00404487
-0.0936895
-0.0863382
-0.0249625
-0.0447071
-0.0366227
-0.0973515
-0.0486896
-0.000487658
-0.0142629
-0.00527557
-0.112186
-0.0023844
-0.0540996
-0.101807
-0.114927
-0.00283288
-0.0535261
-0.0259203
-0.100278
-0.0464977
</DataArray>
<DataArray type='Float64' Name='U' Format='ascii'>
0
0
0.147213
0.164476
0
0.0845652
0.00821631
0.0133267
0.020379
0.0262058
0.0331745
0.0389799
0.0455244
0.051468
0.057591
0.0633966
0.0691624
0.0745099
0.0797464
0
0
0
0
0
0
0
0
0
0
0
0
0
0
0
0
0
0.143257
0.139959
0.13749
0.135492
0.134096
0.133308
0.133031
0.133414
0.134185
0.135608
0.137476
0.139848
0.142586
0.145851
0.149651
0.15383
0.158689
0.0870352
0.0896262
0.0926292
0.0957936
0.0993277
0.103024
0.10701
0.111148
0.115564
0.120076
0.124844
0.129709
0.134833
0.140056
0.145596
0.151316
0.157467
0.0107799
0.0171049
0.0250602
0.0318093
0.0394432
0.0467244
0.0544945
0.0620066
0.0700013
0.0777385
0.0860145
0.094014
0.102309
0.110551
0.119038
0.127681
0.136749
0.0436137
0.00412822
0.0973612
0.0587216
0.119965
0.125811
0.0309229
0.0953668
0.00442349
0.117302
0.0145566
0.0691408
0.115822
0.00607373
0.135318
0.0574201
0.0494147
0.0382338
0.0463598
0.0365648
0.0470538
0.0365514
0.0487107
0.0584774
0.0595512
0.0421321
0.0723292
0.0551208
0.0728769
0.0635979
0.0225662
0.0746979
0.0818661
0.0869572
0.067685
0.0835128
0.095076
0.0981929
0.0822299
0.0563607
0.0712155
0.0937783
0.0938627
0.0961718
0.0946378
0.0292783
0.0213189
0.00955827
0.107548
0.0849443
0.0694552
0.0797346
0.0749543
0.0797752
0.0898721
0.0156151
0.0178735
0.0335674
0.0238346
0.0377446
0.0280859
0.0176841
0.0194795
0.0104435
0.00946129
0.0076025
0.0458834
0.13364
0.121762
0.0143605
0.111247
0.069684
0.0105981
0.00917502
0.123431
0.0740405
0.121545
0.0447719
0.0602225
0.11284
0.107158
0.103207
0.110105
0.0876523
0.120089
0.0515317
0.0561407
0.0438434
0.00393455
0.0480174
0.125569
0.00467104
0.0142166
0.101964
0.121664
0.00462269
0.0798766
0.0288647
0.110041
0.0830312
0.027781
0.0581699
0.109728
0.00443809
0.0704484
0.125792
0.108734
0.0843783
0.107637
0.144544
0.00837333
0.102706
0.0964551
0.00219583
0.0879471
0.0322367
0.0621345
0.118253
0.00844338
0.0644952
0.010771
0.00750592
0.0128135
0.134299
0.139014
0.13988
0.0664544
0.0670155
0.0592339
0.0936107
0.0888948
0.092719
0.0140152
0.00997
0.0134765
0.0133961
0.0100054
0.0139692
0.0277785
0.0337626
0.0823282
0.0864004
0.0839352
0.0258707
0.0227813
0.0206707
0.0834176
0.0799942
0.07855
0.135601
0.132841
0.0466072
0.0408176
0.0439325
0.0838554
0.0756489
0.127797
0.126744
0.0629851
0.0669731
0.0601928
0.102759
0.109183
0.104705
0.127463
0.127458
0.102747
0.094309
0.100192
0.104285
0.0655325
0.0647237
0.0590861
0.1091
0.113606
0.0411883
0.0473702
0.00726721
0.0076644
0.00504191
0.058874
0.0657715
0.0654278
0.0056961
0.00467209
0.00316232
0.11861
0.123459
0.088433
0.0878103
0.094289
0.0294636
0.032817
0.0255496
0.0691969
0.074708
0.0744674
0.0418454
0.036457
0.0417777
0.101225
0.102555
0.108638
0.0528121
0.0571976
0.051485
0.00101598
0.0011621
0.0148063
0.0168783
0.0123023
0.00785969
0.00679679
0.00535446
0.127636
0.121594
0.127579
0.00206707
0.00196914
0.00451499
0.0726522
0.0673859
0.0698017
0.0984139
0.105812
0.101262
0.116346
0.119305
0.122867
0.00606554
0.011357
0.0520903
0.0531484
0.0571838
0.0234672
0.0257173
0.0299327
0.102325
0.0984742
0.106269
0.0698952
0.0658574
0.0663451
0.0183442
0.0253421
0.0197849
0.0220902
0.109337
0.101921
0.0970698
0.103144
0.114579
0.116486
0.115322
0.123567
0.139627
0.131423
0.0769658
0.0886628
0.0889489
0.0772675
0.0827376
0.147787
0.137608
0.142545
0.107341
0.112481
0.112889
0.0041609